[Molden Format]
[Molpro variables]
_NUMVAR=  1095.000000000000    
_AVOGAD= 0.6022140760000000E+24
_BOLTZ= 0.1380649000000000E-22
_CLIGHTSI=  299792458.0000000    
_JOULE= 0.4359744722207100E-17
_JPCAL=  4.184000000000000    
_PLANCK= 0.6626070150000000E-33
_BOHR= 0.5291772109030000E-10
_ECHARG= 0.1602176634000000E-18
_ENULL= 0.8854187812800001E-11
_MU= 0.1660539066600000E-26
_EMASS= 0.9109383701500001E-30
_AMU2AU=  1822.888486217313    
_CLIGHT=  29979245800.00000    
_EV= 0.3674932217565494E-01
_KJOULE= 0.3808798847133432E-03
_KJOULE/MOL= 0.3808798847133432E-03
_CM= 0.4556335252912009E-05
_CM-1= 0.4556335252912009E-05
_DEB2SI= 0.3335640951981520E-29
_KCAL= 0.1593601437640628E-02
_KCAL/MOL= 0.1593601437640628E-02
_KELVIN= 0.3166811563455608E-05
_HERTZ= 0.1519829846057038E-15
_HZ= 0.1519829846057038E-15
_TOA= 0.5291772109030000    
_TOANG= 0.5291772109030000    
_TORAD= 0.1745329251994330E-01
_TOCM=  219474.6313631965    
_TODEBYE=  2.541746473194078    
_TOE= 0.4803204712570263E-09
_TOEV=  27.21138624598803    
_TOHERTZ=  6579683920501656.    
_TOHZ=  6579683920501656.    
_TOK=  315775.0248040668    
_TOKCAL=  627.5094740630558    
_TOKELVIN=  315775.0248040668    
_TOKJ=  2625.499639479825    
_TOKJOULE=  2625.499639479825    
_TOKG= 0.1660539066600000E-26
_ANG=  1.889726124625770    
_ANGSTROM=  1.889726124625770    
_RPAREF=  0.000000000000000    
_RPADISS=  0.000000000000000    
_IGNORE_UNDEF=  2.000000000000000    
_STRICTCHECK=  0.000000000000000    
!SEWARD=  0.000000000000000    
!MULTI=  0.000000000000000    
!DFMULTI=  0.000000000000000    
_SEW_ONEEL=  0.000000000000000    
_CPPDONE=FALSE
_DKROLL_DONE=  0.000000000000000    
_FNUC_DONE=  0.000000000000000    
_FOCKDONE=TRUE
_GRADONE=FALSE
_HESSDONE=TRUE
_INTDONE=TRUE
_SCFDONE=TRUE
_MODUL_BLOCK=FALSE
_MODUL_SLATER=FALSE
_MODUL_MRCC=FALSE
_MODUL_NBO6=FALSE
_MODUL_NECI=FALSE
_MODUL_AIMS=TRUE
_MODUL_HDF5=FALSE
_MODUL_GECCO=FALSE
_ISWINDOWS=FALSE
_MRCC_EXEC=
_FITC_AO_SAVED=FALSE
_FITC_MO_SAVED=FALSE
_LSTYP=SEWARD
_INTYP=INTS
_GEOMTYP=XYZ
_GRADTYP=ALASKA
_DIRECT=FALSE
_DKHO= -1.000000000000000    
_FNUC=  0.000000000000000    
_SYNCM=  0.000000000000000    
_ZORIENT=  1.000000000000000    
_CHARGE=  1.000000000000000    
_NELEC=  38.00000000000000    
!SPIN=  0.000000000000000    
_OPTCONV= 0.8818344216880495E-02
_QSDSTEP=  0.000000000000000    
_QSDIRC=  0.000000000000000    
_PROGRAM=FREQ
_CPUSTEP=  45.64999999999999    
_SYSSTEP=  1.880000000000000    
_WALLSTEP=  47.61000000000000    
!DFSCF=  0.000000000000000    
!SCSGRD=  0.000000000000000    
_NCEN=  10.00000000000000    
_CPUTOT=  108.3700000000000    
_DFTEXFAC=  1.000000000000000    
_DMX=-0.7510875750254291    
_DMY=-0.9605250493381945    
_DMZ= 0.1410077818660044E-01
_DMX_SCF=-0.7510875750254291    
_DMY_SCF=-0.9605250493381945    
_DMZ_SCF= 0.1410077818660044E-01
_FREQUENCIES= 0.3682942054715699E-04
_HOMO=  19.10000000000000    
_EHOMO=-0.6477061483027142    
_LUMO=  20.10000000000000    
_ELUMO=-0.1410065798687716    
_ENERGY= -265.9800982541624    
_ENERGY_METHOD=RHF
_ENERGY_BASIS=cc-pVDZ
_GEOMETRY_METHOD=RHF
_GEOMETRY_BASIS=cc-pVDZ
_ENUC=  175.0117042917160    
_GRADENERG= -265.9800980744295    
_GRADEXFAC=  9999.000000000000    
_GRADMETHOD=  1.000000000000000    
_NMRMETHOD=  0.000000000000000    
_NMRMAGNET=  0.000000000000000    
_VIRIAL=-0.4005498692321640E-03
!GRID_FREEZE= -1.000000000000000    
!NEESE_INDEX=  0.000000000000000    
_ITERATIONS=  11.00000000000000    
_LASTNELEC=  38.00000000000000    
_LASTSPIN=  0.000000000000000    
_LASTSYM=  1.000000000000000    
_MPP_PROG=  0.000000000000000    
_MSNSTATES=  0.000000000000000    
_RS2PHASE=  0.000000000000000    
_NPROC_MPP=  1.000000000000000    
_NPROC_SMP=  1.000000000000000    
_NUMSTEP=  0.000000000000000    
_OPTCONVMX= 0.5781326326210283E-02
_OPTCONVRMS= 0.1800036975631678E-02
_OPTGRAD= 0.2472790857922220E-03
_OPTGRADMX= 0.1922621640394859E-03
_OPTGRADRMS= 0.5047563202107077E-04
!GMAXLAST= 0.1922621640394859E-03
!DMAXLAST= 0.5781326326210283E-02
!DELAST= 0.2024107914166962E-05
_OPTSTEP=  21.00000000000000    
_ORBITAL=  2100.200000000000    
_PI=  3.141592653589793    
_SEIG_MIN= 0.2342628862792634E-02
_SEWPROP=TRUE
_STATUS=  1.000000000000000    
_SYSTOT=  5.150000000000000    
_VERSION=  2023001.000000000    
_WALLTOT=  114.1500000000000    
_ZPE= 0.8458171593180949E-01
_DATE=26-Jul-23
_LASTORB=0
_OUTPUT=/Users/peterk/current/QtMolpro/malonaldehyde.molpro/run/4.molpro/4.out
_PGROUP=C1
_TIME=07:45:56
_LIBMOL=/usr/local/molpro/molpro_2023.1/lib/
_VIGRDC=  0.000000000000000    
!VIBCNT=  0.000000000000000    
!RGHFCNT=  0.000000000000000    
!SURFREC=  0.000000000000000    
!XSURFREC=  0.000000000000000    
!XPOLYREC=  0.000000000000000    
!ROTREC=  0.000000000000000    
!POLYREC=  0.000000000000000    
!DIPREC=  0.000000000000000    
!DIP4DREC=  0.000000000000000    
!DIPROT=  0.000000000000000    
!DIP4DROT=  0.000000000000000    
!PTREC=  0.000000000000000    
!PT4DREC=  0.000000000000000    
!VSCFREC=  0.000000000000000    
!VCIREC=  0.000000000000000    
!PVCIREC=  0.000000000000000    
!VMP2REC=  0.000000000000000    
!VMCSCFREC=  0.000000000000000    
!VMRCIREC=  0.000000000000000    
!VIBSTATEREC=  0.000000000000000    
!VIBSTATECNT=  0.000000000000000    
!VIBINFO=  0.000000000000000    
!GAREC=  0.000000000000000    
!SCFORB=  21002.00000000000    
!DEFCORE=  5.000000000000000    
!SCORE=  0.000000000000000    
!NEWMOL=  0.000000000000000    
!NEWSYM=  0.000000000000000    
_SLFILES=slscratch
_NGSSTO=  9.000000000000000    
_SIN=SIN
_COS=COS
_TAN=TAN
_ACOS=ACOS
_ASIN=ASIN
_ATAN=ATAN
_COSH=COSH
_SINH=SINH
_TANH=TANH
_ABS=ABS
_MOD=MOD
_ERF=ERF
_REFC=REFC
_ERFC=ERFC
_HYPOT=HYPOT
_J0=J0
_J1=J1
_JN=JN
_GAMMA=GAMMA
_LGAMMA=LGAMMA
_Y0=Y0
_Y1=Y1
_YN=YN
_EXP=EXP
_LOG=LOG
_LOG10=LOG10
_SQRT=SQRT
_INT=INT
_NINT=NINT
_MAX=MAX
_MIN=MIN
_COSMO=  0.000000000000000    
_COSMOIT=  0.000000000000000    
_COSMOES=  0.000000000000000    
_COSMOEDS=  0.000000000000000    
_COSMOEC=  0.000000000000000    
_COSMOEDCORR=  0.000000000000000    
_FEPSI=  1.000000000000000    
_SL_IsMM=  0.000000000000000    
_SL_NSYM=  1.000000000000000    
_SL_System_BitSw=  0.000000000000000    
_SL_Unique_atoms=  0.000000000000000    
_SL_GRAD=  0.000000000000000    
_SL_MAXUPD_Hess=  5.000000000000000    
_SL_N_PRINT_COD=  5.000000000000000    
_SL_PRINT_CODES=  0.000000000000000    
_SL_BasType=  0.000000000000000    
_SL_Energy_Pred=  0.000000000000000    
_SL_New_Coords=  0.000000000000000    
_SL_Total_Nuclea=  0.000000000000000    
_SL_Highest_Mltp=  0.000000000000000    
_SL_Ref_Geom=  0.000000000000000    
_SL_Symmetry_ope=  1.000000000000000    
_SL_agrad=  0.000000000000000    
_SL_GrdMax=  0.000000000000000    
_SL_GrdNorm=  0.000000000000000    
_SL_GrdRMS=  0.000000000000000    
_SL_Hss_Q=  0.000000000000000    
_SL_Hss_X=  0.000000000000000    
_SL_BMxOld=  0.000000000000000    
_SL_KtB=  0.000000000000000    
_SL_TROld=  0.000000000000000    
_SL_No_of_Intern=  0.000000000000000    
_SL_Hess=  0.000000000000000    
_SL_K=  0.000000000000000    
!LATTICE= -1.000000000000000    
!NEWLATTICE=  0.000000000000000    
!LATGRAD_VAR=FALSE
!SEW_LATTICE=  1.000000000000000    
!AIC_ONEEL=  0.000000000000000    
!LOCAL=  0.000000000000000    
!SAVEDOM= -1.000000000000000    
!RESTDOM= -1.000000000000000    
!SAVEDOM_HF= -1.000000000000000    
!RESTDOM_HF= -1.000000000000000    
!HESSREC=  5300.200000000000    
!FREQREC=  5400.200000000000    
!NMODREC=  5450.200000000000    
!GTASKS=  0.000000000000000    
!HTASKS=  0.000000000000000    
!SAVEDOM_EOM= -1.000000000000000    
!RESTDOM_EOM= -1.000000000000000    
!GRADSTATE= -1.000000000000000    
!DEBUG=  0.000000000000000    
!CFIT_CPHF=  0.000000000000000    
!RDOMAUX_CPHF=  0.000000000000000    
!THRAO_CPHF= 0.1000000000000000E-11
!THRMO_CPHF= 0.1000000000000000E-11
!THROV_CPHF= 0.1000000000000000E-11
!THRSW_CPHF= 0.1000000000000000E-11
!THRPROD_CPHF= 0.1000000000000000E-11
!THRAOPR_CPHF= 0.1000000000000000E-11
!CFIT_SCFGRD=  0.000000000000000    
!RDOMAUX_SCFGRD=  0.000000000000000    
!THRAO_SCFGRD= 0.1000000000000000E-11
!THRMO_SCFGRD= 0.1000000000000000E-11
!THROV_SCFGRD= 0.1000000000000000E-11
!THRSW_SCFGRD= 0.1000000000000000E-11
!THRPROD_SCFGRD= 0.1000000000000000E-11
!THRAOPR_SCFGRD= 0.1000000000000000E-11
!LOCFIT_SCF=  0.000000000000000    
!LOCFIT_MP2=  0.000000000000000    
_RIDOM=  0.000000000000000    
!CC2_METHOD=  0.000000000000000    
_BASIS2006=FALSE
_SVDDEL= -1.000000000000000    
_SVDDELA= -1.000000000000000    
_SVDDELP= -1.000000000000000    
_SVDDELF= -1.000000000000000    
_SVDDELS= -1.000000000000000    
_SVDDEL_ABS= -1.000000000000000    
_SVDDELA_ABS= -1.000000000000000    
_SVDDELP_ABS= -1.000000000000000    
_SVDDELF_ABS= -1.000000000000000    
_SVDDELS_ABS= -1.000000000000000    
_MAXBASIS=  0.000000000000000    
!OPT_CONICAL=  0.000000000000000    
!CLEARSP_JGRID=  0.000000000000000    
_GRDHYBR=  0.000000000000000    
_STATEGRAD=  1.000000000000000    
_4EXT_NDISKS=  1.000000000000000    
!EMBEDFLAG=  1.000000000000000    
!EMBED=FALSE
!EMBED_F12=FALSE
!EMBEDNUC=  0.000000000000000    
_EMBEDENERGY=  0.000000000000000    
!EMBED_DFC=FALSE
!NUM_VOIDS=  0.000000000000000    
_IBODY=  0.000000000000000    
_EMBE_CORR=  0.000000000000000    
!EMBED_PROJ=FALSE
!EMB_PROJ_ZMU=  1000000.000000000    
!CORRECTION_HF=  0.000000000000000    
!EMBED_AORB=  0.000000000000000    
!EMBED_NACORR=  0.000000000000000    
!EMBED_MP2=FALSE
!EMBED_TRUNC_PERTURBATION=FALSE
!EMBED_FROZEN=  0.000000000000000    
!EMBED_ACTIVE=  0.000000000000000    
_CHANGE_BASIS=FALSE
_RESTORE_BASIS=FALSE
_FIX_EMBED_GUESS=FALSE
_EMBED_SCF=FALSE
_NEOBAS=FALSE
_NEOOVE=FALSE
_PRINEO=FALSE
_HUZINAGA_T=FALSE
_HUZINAGA_F=FALSE
_HUZINAGA=FALSE
_HUZINAGA_CORRECT=FALSE
!FASTLATGRAD=  1.000000000000000    
!FASTVLAMBDA= -1.000000000000000    
!IFORCE= -1.000000000000000    
!USESYM= -1.000000000000000    
_SINDEX=  0.000000000000000    
_AVDOM_OSV=  0.000000000000000    
_AVDOM_PNO=  0.000000000000000    
_AVDOM_PNOCC=  0.000000000000000    
_AVDOM_TNO=  0.000000000000000    
_AVDOM_TNOIT=  0.000000000000000    
_AVDOM_PAO=  0.000000000000000    
_AVDOM_LMO=  0.000000000000000    
_CC2OSV_FLAG=  0.000000000000000    
_EOMCCSD_CONV=FALSE
_TMADC2_FLAG=FALSE
_PROPADC2_FLAG=FALSE
_LEN_VirQ=  0.000000000000000    
_GRDCC2LR_FLAG=FALSE
_GRDADC2_FLAG=FALSE
_RO_VGLOBAL=  0.000000000000000    
_OPT=FALSE
_FREQ=FALSE
_HESS=FALSE
_CMRCC_callName=EMPTY
_CMRCC_callCount=  0.000000000000000    
_GECCO_CIROOT=  1.000000000000000    
_SYM_CATION=  1.000000000000000    
_MON_A=FALSE
_MON_B=FALSE
_MAXGEOM=  100.0000000000000    
!MAXGEOM=  100.0000000000000    
GX1=  1.278204912180416    
GY1=  1.287694827692189    
GZ1=-0.2021339348174424E-01
GX2= -1.247432448642050    
GY2=  1.292427093293852    
GZ2=-0.8442367529412048E-02
GX3= 0.5140735750633040E-01
GY3=-0.7328920309600437    
GZ3= 0.7909181818576515E-02
GX4=  1.320416445389728    
GY4= 0.9798747590917252E-01
GZ4=-0.7331318477416829E-02
GX5= -1.205252044066502    
GY5= 0.6265802830161400E-01
GZ5= 0.4909458108666377E-02
GX6= 0.2560162621582628E-01
GY6= -1.392447913063859    
GZ6= 0.8834938134862085    
GX7= 0.1740491411527333E-01
GY7= -1.411955677907843    
GZ7=-0.8523456571070961    
GX8=  2.269039578195020    
GY8=-0.4479297709612676    
GZ8=-0.5873507770171657E-02
GX9= -2.170187550071066    
GY9=-0.4401860640739489    
GZ9= 0.1490100458717377E-01
GX10=-0.3392027908229747    
GY10=  1.684644031770134    
GZ10=-0.1700721363478448E-01
OX1=  2.415457215172321    
OY1=  2.433390556435409    
OZ1=-0.3819777772979235E-01
OX2= -2.357305686904775    
OY2=  2.442333242371539    
OZ2=-0.1595376247402227E-01
CX3= 0.9714582647768924E-01
CY3= -1.384965217435233    
CZ3= 0.1494618750697920E-01
CX4=  2.495225452238466    
CY4= 0.1851694931117016    
CZ4=-0.1385418405472621E-01
CX5= -2.277596274431080    
CY5= 0.1184065129991008    
CZ5= 0.9277531245702677E-02
HX6= 0.4838006189295092E-01
HY6= -2.631345198497407    
HZ6=  1.669561340290136    
HX7= 0.3289052090049983E-01
HY7= -2.668209531356140    
HZ7= -1.610699855446598    
HX8=  4.287863368724967    
HY8=-0.8464645901831451    
HZ8=-0.1109932107648583E-01
HX9= -4.101060108706890    
HY9=-0.8318311049767345    
HZ9= 0.2815881765155071E-01
HX10=-0.6410003753641457    
HY10=  3.183515837530909    
HZ10=-0.3213897591274383E-01
[Atoms] Angs
O     1    8         1.2782049122        1.2876948277       -0.0202133935
O     2    8        -1.2474324486        1.2924270933       -0.0084423675
C     3    6         0.0514073575       -0.7328920310        0.0079091818
C     4    6         1.3204164454        0.0979874759       -0.0073313185
C     5    6        -1.2052520441        0.0626580283        0.0049094581
H     6    1         0.0256016262       -1.3924479131        0.8834938135
H     7    1         0.0174049141       -1.4119556779       -0.8523456571
H     8    1         2.2690395782       -0.4479297710       -0.0058735078
H     9    1        -2.1701875501       -0.4401860641        0.0149010046
H    10    1        -0.3392027908        1.6846440318       -0.0170072136
[GTO]
   1 0
 s    9  1.00
  0.1172000000D+05  0.7100002503D-03
  0.1759000000D+04  0.5470001928D-02
  0.4008000000D+03  0.2783700981D-01
  0.1137000000D+03  0.1048000369D+00
  0.3703000000D+02  0.2830620998D+00
  0.1327000000D+02  0.4487191582D+00
  0.5025000000D+01  0.2709520955D+00
  0.1013000000D+01  0.1545800545D-01
  0.3023000000D+00 -0.2585000911D-02
 s    9  1.00
  0.1172000000D+05 -0.1600000154D-03
  0.1759000000D+04 -0.1263000121D-02
  0.4008000000D+03 -0.6267000602D-02
  0.1137000000D+03 -0.2571600247D-01
  0.3703000000D+02 -0.7092400682D-01
  0.1327000000D+02 -0.1654110159D+00
  0.5025000000D+01 -0.1169550112D+00
  0.1013000000D+01  0.5573680536D+00
  0.3023000000D+00  0.5727590551D+00
 s    9  1.00
  0.1172000000D+05  0.0000000000D+00
  0.1759000000D+04  0.0000000000D+00
  0.4008000000D+03  0.0000000000D+00
  0.1137000000D+03  0.0000000000D+00
  0.3703000000D+02  0.0000000000D+00
  0.1327000000D+02  0.0000000000D+00
  0.5025000000D+01  0.0000000000D+00
  0.1013000000D+01  0.0000000000D+00
  0.3023000000D+00  0.1000000000D+01
 p    4  1.00
  0.1770000000D+02  0.4301799242D-01
  0.3854000000D+01  0.2289129597D+00
  0.1046000000D+01  0.5087279104D+00
  0.2753000000D+00  0.4605309189D+00
 p    4  1.00
  0.1770000000D+02  0.0000000000D+00
  0.3854000000D+01  0.0000000000D+00
  0.1046000000D+01  0.0000000000D+00
  0.2753000000D+00  0.1000000000D+01
 d    1  1.00
  0.1185000000D+01  0.1000000000D+01
  
   2 0
 s    9  1.00
  0.1172000000D+05  0.7100002503D-03
  0.1759000000D+04  0.5470001928D-02
  0.4008000000D+03  0.2783700981D-01
  0.1137000000D+03  0.1048000369D+00
  0.3703000000D+02  0.2830620998D+00
  0.1327000000D+02  0.4487191582D+00
  0.5025000000D+01  0.2709520955D+00
  0.1013000000D+01  0.1545800545D-01
  0.3023000000D+00 -0.2585000911D-02
 s    9  1.00
  0.1172000000D+05 -0.1600000154D-03
  0.1759000000D+04 -0.1263000121D-02
  0.4008000000D+03 -0.6267000602D-02
  0.1137000000D+03 -0.2571600247D-01
  0.3703000000D+02 -0.7092400682D-01
  0.1327000000D+02 -0.1654110159D+00
  0.5025000000D+01 -0.1169550112D+00
  0.1013000000D+01  0.5573680536D+00
  0.3023000000D+00  0.5727590551D+00
 s    9  1.00
  0.1172000000D+05  0.0000000000D+00
  0.1759000000D+04  0.0000000000D+00
  0.4008000000D+03  0.0000000000D+00
  0.1137000000D+03  0.0000000000D+00
  0.3703000000D+02  0.0000000000D+00
  0.1327000000D+02  0.0000000000D+00
  0.5025000000D+01  0.0000000000D+00
  0.1013000000D+01  0.0000000000D+00
  0.3023000000D+00  0.1000000000D+01
 p    4  1.00
  0.1770000000D+02  0.4301799242D-01
  0.3854000000D+01  0.2289129597D+00
  0.1046000000D+01  0.5087279104D+00
  0.2753000000D+00  0.4605309189D+00
 p    4  1.00
  0.1770000000D+02  0.0000000000D+00
  0.3854000000D+01  0.0000000000D+00
  0.1046000000D+01  0.0000000000D+00
  0.2753000000D+00  0.1000000000D+01
 d    1  1.00
  0.1185000000D+01  0.1000000000D+01
  
   3 0
 s    9  1.00
  0.6665000000D+04  0.6920001793D-03
  0.1000000000D+04  0.5329001381D-02
  0.2280000000D+03  0.2707700701D-01
  0.6471000000D+02  0.1017180264D+00
  0.2106000000D+02  0.2747400712D+00
  0.7495000000D+01  0.4485641162D+00
  0.2797000000D+01  0.2850740738D+00
  0.5215000000D+00  0.1520400394D-01
  0.1596000000D+00 -0.3191000827D-02
 s    9  1.00
  0.6665000000D+04 -0.1460000642D-03
  0.1000000000D+04 -0.1154000508D-02
  0.2280000000D+03 -0.5725002519D-02
  0.6471000000D+02 -0.2331201026D-01
  0.2106000000D+02 -0.6395502813D-01
  0.7495000000D+01 -0.1499810660D+00
  0.2797000000D+01 -0.1272620560D+00
  0.5215000000D+00  0.5445292395D+00
  0.1596000000D+00  0.5804962554D+00
 s    9  1.00
  0.6665000000D+04  0.0000000000D+00
  0.1000000000D+04  0.0000000000D+00
  0.2280000000D+03  0.0000000000D+00
  0.6471000000D+02  0.0000000000D+00
  0.2106000000D+02  0.0000000000D+00
  0.7495000000D+01  0.0000000000D+00
  0.2797000000D+01  0.0000000000D+00
  0.5215000000D+00  0.0000000000D+00
  0.1596000000D+00  0.1000000000D+01
 p    4  1.00
  0.9439000000D+01  0.3810902127D-01
  0.2002000000D+01  0.2094801169D+00
  0.5456000000D+00  0.5085572839D+00
  0.1517000000D+00  0.4688422617D+00
 p    4  1.00
  0.9439000000D+01  0.0000000000D+00
  0.2002000000D+01  0.0000000000D+00
  0.5456000000D+00  0.0000000000D+00
  0.1517000000D+00  0.1000000000D+01
 d    1  1.00
  0.5500000000D+00  0.1000000000D+01
  
   4 0
 s    9  1.00
  0.6665000000D+04  0.6920001793D-03
  0.1000000000D+04  0.5329001381D-02
  0.2280000000D+03  0.2707700701D-01
  0.6471000000D+02  0.1017180264D+00
  0.2106000000D+02  0.2747400712D+00
  0.7495000000D+01  0.4485641162D+00
  0.2797000000D+01  0.2850740738D+00
  0.5215000000D+00  0.1520400394D-01
  0.1596000000D+00 -0.3191000827D-02
 s    9  1.00
  0.6665000000D+04 -0.1460000642D-03
  0.1000000000D+04 -0.1154000508D-02
  0.2280000000D+03 -0.5725002519D-02
  0.6471000000D+02 -0.2331201026D-01
  0.2106000000D+02 -0.6395502813D-01
  0.7495000000D+01 -0.1499810660D+00
  0.2797000000D+01 -0.1272620560D+00
  0.5215000000D+00  0.5445292395D+00
  0.1596000000D+00  0.5804962554D+00
 s    9  1.00
  0.6665000000D+04  0.0000000000D+00
  0.1000000000D+04  0.0000000000D+00
  0.2280000000D+03  0.0000000000D+00
  0.6471000000D+02  0.0000000000D+00
  0.2106000000D+02  0.0000000000D+00
  0.7495000000D+01  0.0000000000D+00
  0.2797000000D+01  0.0000000000D+00
  0.5215000000D+00  0.0000000000D+00
  0.1596000000D+00  0.1000000000D+01
 p    4  1.00
  0.9439000000D+01  0.3810902127D-01
  0.2002000000D+01  0.2094801169D+00
  0.5456000000D+00  0.5085572839D+00
  0.1517000000D+00  0.4688422617D+00
 p    4  1.00
  0.9439000000D+01  0.0000000000D+00
  0.2002000000D+01  0.0000000000D+00
  0.5456000000D+00  0.0000000000D+00
  0.1517000000D+00  0.1000000000D+01
 d    1  1.00
  0.5500000000D+00  0.1000000000D+01
  
   5 0
 s    9  1.00
  0.6665000000D+04  0.6920001793D-03
  0.1000000000D+04  0.5329001381D-02
  0.2280000000D+03  0.2707700701D-01
  0.6471000000D+02  0.1017180264D+00
  0.2106000000D+02  0.2747400712D+00
  0.7495000000D+01  0.4485641162D+00
  0.2797000000D+01  0.2850740738D+00
  0.5215000000D+00  0.1520400394D-01
  0.1596000000D+00 -0.3191000827D-02
 s    9  1.00
  0.6665000000D+04 -0.1460000642D-03
  0.1000000000D+04 -0.1154000508D-02
  0.2280000000D+03 -0.5725002519D-02
  0.6471000000D+02 -0.2331201026D-01
  0.2106000000D+02 -0.6395502813D-01
  0.7495000000D+01 -0.1499810660D+00
  0.2797000000D+01 -0.1272620560D+00
  0.5215000000D+00  0.5445292395D+00
  0.1596000000D+00  0.5804962554D+00
 s    9  1.00
  0.6665000000D+04  0.0000000000D+00
  0.1000000000D+04  0.0000000000D+00
  0.2280000000D+03  0.0000000000D+00
  0.6471000000D+02  0.0000000000D+00
  0.2106000000D+02  0.0000000000D+00
  0.7495000000D+01  0.0000000000D+00
  0.2797000000D+01  0.0000000000D+00
  0.5215000000D+00  0.0000000000D+00
  0.1596000000D+00  0.1000000000D+01
 p    4  1.00
  0.9439000000D+01  0.3810902127D-01
  0.2002000000D+01  0.2094801169D+00
  0.5456000000D+00  0.5085572839D+00
  0.1517000000D+00  0.4688422617D+00
 p    4  1.00
  0.9439000000D+01  0.0000000000D+00
  0.2002000000D+01  0.0000000000D+00
  0.5456000000D+00  0.0000000000D+00
  0.1517000000D+00  0.1000000000D+01
 d    1  1.00
  0.5500000000D+00  0.1000000000D+01
  
   6 0
 s    4  1.00
  0.1301000000D+02  0.1968498999D-01
  0.1962000000D+01  0.1379769298D+00
  0.4446000000D+00  0.4781477569D+00
  0.1220000000D+00  0.5012397451D+00
 s    4  1.00
  0.1301000000D+02  0.0000000000D+00
  0.1962000000D+01  0.0000000000D+00
  0.4446000000D+00  0.0000000000D+00
  0.1220000000D+00  0.1000000000D+01
 p    1  1.00
  0.7270000000D+00  0.1000000000D+01
  
   7 0
 s    4  1.00
  0.1301000000D+02  0.1968498999D-01
  0.1962000000D+01  0.1379769298D+00
  0.4446000000D+00  0.4781477569D+00
  0.1220000000D+00  0.5012397451D+00
 s    4  1.00
  0.1301000000D+02  0.0000000000D+00
  0.1962000000D+01  0.0000000000D+00
  0.4446000000D+00  0.0000000000D+00
  0.1220000000D+00  0.1000000000D+01
 p    1  1.00
  0.7270000000D+00  0.1000000000D+01
  
   8 0
 s    4  1.00
  0.1301000000D+02  0.1968498999D-01
  0.1962000000D+01  0.1379769298D+00
  0.4446000000D+00  0.4781477569D+00
  0.1220000000D+00  0.5012397451D+00
 s    4  1.00
  0.1301000000D+02  0.0000000000D+00
  0.1962000000D+01  0.0000000000D+00
  0.4446000000D+00  0.0000000000D+00
  0.1220000000D+00  0.1000000000D+01
 p    1  1.00
  0.7270000000D+00  0.1000000000D+01
  
   9 0
 s    4  1.00
  0.1301000000D+02  0.1968498999D-01
  0.1962000000D+01  0.1379769298D+00
  0.4446000000D+00  0.4781477569D+00
  0.1220000000D+00  0.5012397451D+00
 s    4  1.00
  0.1301000000D+02  0.0000000000D+00
  0.1962000000D+01  0.0000000000D+00
  0.4446000000D+00  0.0000000000D+00
  0.1220000000D+00  0.1000000000D+01
 p    1  1.00
  0.7270000000D+00  0.1000000000D+01
  
  10 0
 s    4  1.00
  0.1301000000D+02  0.1968498999D-01
  0.1962000000D+01  0.1379769298D+00
  0.4446000000D+00  0.4781477569D+00
  0.1220000000D+00  0.5012397451D+00
 s    4  1.00
  0.1301000000D+02  0.0000000000D+00
  0.1962000000D+01  0.0000000000D+00
  0.4446000000D+00  0.0000000000D+00
  0.1220000000D+00  0.1000000000D+01
 p    1  1.00
  0.7270000000D+00  0.1000000000D+01


[MO]
 Sym=      1.1
 Ene=     -20.9002
 Spin= Alpha
 Occup=    2.000000
1 0.000001353712022
2 0.000196971419780
3 -0.000433766163681
4 -0.000041548106713
5 0.000040602220306
6 -0.000000250336617
7 0.000384167071121
8 -0.000054470918282
9 -0.000001239332206
10 -0.000041915777722
11 0.000025572128047
12 0.000016343649675
13 -0.000010218424033
14 0.000000423734556
15 -0.000000061142950
16 1.00088820389664
17 0.004236011434319
18 -0.005812325814326
19 0.001690991000265
20 -0.001868926679976
21 0.000012707386355
22 -0.001497200363152
23 0.002422038131442
24 -0.000019715042705
25 0.000090707163387
26 0.000078561776265
27 -0.000169268939652
28 0.000069882242597
29 -0.000002161649555
30 -0.000003480553252
31 0.000073726948615
32 0.000190947450417
33 -0.001940129030728
34 0.000190705662470
35 -0.000135381597377
36 0.000000603569961
37 -0.000861610206763
38 -0.001340051831061
39 0.000018864673541
40 0.000176015310509
41 -0.000143295885648
42 -0.000032719424861
43 0.000175504245044
44 -0.000003048758545
45 0.000000604783440
46 -0.000084497916286
47 -0.000313579537583
48 0.001640692117479
49 0.000027940812923
50 0.000000528925563
51 -0.000000161448317
52 -0.000871541382114
53 -0.000355629660063
54 0.000008184696749
55 0.000027135145798
56 0.000003941224636
57 -0.000031076370434
58 -0.000068243654971
59 0.000000413265744
60 -0.000000102378923
61 0.000153229842963
62 0.000354163896319
63 0.002566996490901
64 -0.000129269659199
65 0.000053525991352
66 -0.000000003044353
67 0.001063933948329
68 0.001865413324305
69 -0.000025444493289
70 0.000483531320013
71 -0.000548284328122
72 0.000064753008109
73 0.000075577420470
74 -0.000003048941967
75 0.000007459979110
76 0.000137139214316
77 -0.000314349091870
78 0.000075193962136
79 0.000082747106373
80 0.000022025021746
81 0.000136976042196
82 -0.000314223817177
83 0.000074967905439
84 0.000082253130924
85 -0.000024571684462
86 -0.000126298972858
87 0.000218221996061
88 0.000054925768129
89 0.000027504644134
90 -0.000000571756352
91 -0.000313552363777
92 0.000529978702144
93 -0.000041229114391
94 -0.000267015353028
95 0.000003133591966
96 0.000445823171449
97 -0.000117018099721
98 0.000511572586530
99 0.000076874982675
100 -0.000003230378730
 Sym=      2.1
 Ene=     -20.7912
 Spin= Alpha
 Occup=    2.000000
1 1.00087316035662
2 0.004006369561340
3 -0.005905719720954
4 -0.000371305305229
5 -0.002595239843813
6 0.000030285148995
7 0.000542584506651
8 0.002857647158878
9 -0.000033982818048
10 0.000028876699401
11 0.000208365343824
12 -0.000237242043225
13 -0.000010959802698
14 -0.000001357102864
15 -0.000005606277332
16 0.000094089884441
17 0.000139904798555
18 -0.000225331457835
19 0.000033622320221
20 0.000033143718603
21 -0.000000520726601
22 -0.000145996094267
23 0.000088725277314
24 -0.000000331344754
25 -0.000014057257842
26 0.000025848313799
27 -0.000011791055957
28 0.000057651644015
29 -0.000000621655426
30 -0.000000741507613
31 0.000046961623948
32 0.000087226353452
33 -0.001621996452403
34 -0.000201868631343
35 -0.000130392087352
36 0.000002396950037
37 0.000884038574496
38 -0.001226618552366
39 0.000009370993646
40 0.000170916186106
41 -0.000129271420926
42 -0.000041644765180
43 -0.000184115425536
44 0.000000841859498
45 0.000001999069544
46 0.000158260991842
47 0.000301379337429
48 0.002618270093798
49 0.000131249638368
50 -0.000171590413224
51 0.000001250692971
52 -0.001095331775121
53 0.002122394034594
54 -0.000018090447713
55 0.000565405033797
56 -0.000699804749717
57 0.000134399715921
58 -0.000000653277039
59 -0.000002389452446
60 0.000010602103164
61 -0.000060681703221
62 -0.000234610222745
63 0.001542987199532
64 -0.000033220364406
65 0.000026144823331
66 -0.000000159463883
67 0.000651110906452
68 -0.000338454904804
69 0.000000849087857
70 0.000014610096819
71 -0.000003490172431
72 -0.000011119924388
73 0.000029227184476
74 -0.000000447935479
75 -0.000000212091413
76 0.000142012689973
77 -0.000306065952991
78 -0.000076225081784
79 0.000085709016496
80 0.000016180950551
81 0.000141860641850
82 -0.000305972060814
83 -0.000076386284537
84 0.000085363522349
85 -0.000017364959887
86 -0.000232303979070
87 0.000521164429167
88 -0.000006775058587
89 -0.000325866305701
90 0.000003618295807
91 -0.000126905285322
92 0.000148478048179
93 -0.000033714612408
94 0.000025271152214
95 -0.000000132284431
96 0.000252558833105
97 -0.000125195290295
98 0.000267951923121
99 -0.000089088707605
100 -0.000000263848911
 Sym=      3.1
 Ene=     -11.6418
 Spin= Alpha
 Occup=    2.000000
1 0.000000141022096
2 -0.000013958101463
3 -0.000191808637768
4 0.000020051106032
5 0.000019155517315
6 -0.000000296388080
7 0.000021287788579
8 0.000106664348935
9 -0.000001281219038
10 0.000007321460766
11 -0.000008350254858
12 0.000001028794092
13 0.000001367439151
14 -0.000000048842204
15 0.000000106487763
16 0.000043020457365
17 0.001441334852143
18 -0.003623314524511
19 -0.000077222780759
20 -0.000430664928101
21 0.000005101893147
22 -0.000157802217432
23 0.001927408418902
24 -0.000020465244317
25 -0.000165395511200
26 -0.000053864019645
27 0.000219259530844
28 -0.000063965111541
29 0.000002768450392
30 0.000003768319742
31 0.002522107929211
32 0.000157473195564
33 -0.000041813219787
34 0.000107272263614
35 -0.000026972204673
36 -0.000000157813554
37 -0.001223220193054
38 -0.000111205153071
39 0.000006789238295
40 -0.000183537337139
41 -0.000029720274114
42 0.000213257611253
43 0.000053955321584
44 0.000001524282236
45 0.000002841947828
46 -0.000133689442826
47 -0.000250534496331
48 0.001336393641809
49 0.000002378324855
50 -0.000016037997388
51 0.000000184964040
52 -0.000605483161181
53 -0.000138517187913
54 0.000004431771187
55 0.000074968244687
56 0.000052997193157
57 -0.000127965437844
58 0.000022101616713
59 -0.000001370897815
60 -0.000002431153145
61 1.00120894520584
62 0.007094878722862
63 -0.005360702221929
64 0.000025058324162
65 0.002141997099185
66 -0.000023710356111
67 -0.000257532052865
68 0.000928116871371
69 -0.000009063553403
70 0.000060686900589
71 0.000940530238759
72 -0.001001217139348
73 -0.000040743525785
74 -0.000005184810337
75 -0.000024526515910
76 -0.000009894148849
77 0.000311945930039
78 -0.000080774406805
79 0.000089307098034
80 -0.000029649674483
81 -0.000009873257993
82 0.000311757587974
83 -0.000080507741731
84 0.000089964255362
85 0.000028427578155
86 -0.000076342347523
87 0.000149308699587
88 0.000030481073345
89 -0.000005166769441
90 -0.000000090841493
91 -0.000088969819969
92 0.001293298865908
93 -0.000150700108808
94 -0.000237121330015
95 0.000003316182930
96 0.000677902538992
97 -0.000531329957873
98 -0.000118144883450
99 -0.000319786907932
100 0.000004070901207
 Sym=      4.1
 Ene=     -11.5645
 Spin= Alpha
 Occup=    2.000000
1 -0.000165151395403
2 0.001129458088282
3 -0.002516456627741
4 0.000055390517545
5 -0.000606455987472
6 0.000006395425720
7 -0.000096443449340
8 0.001513954334793
9 -0.000016159243962
10 -0.000192710731557
11 0.000173744602243
12 0.000018966129314
13 -0.000046042707807
14 0.000001674915849
15 -0.000001746913173
16 0.000006466714425
17 0.000008301707280
18 -0.000250881634671
19 -0.000018261960580
20 0.000041127649031
21 -0.000000357786749
22 -0.000053956296963
23 0.000170262307594
24 -0.000001632213879
25 -0.000006506387576
26 0.000002918745111
27 0.000003587642465
28 0.000029537935370
29 -0.000000269635468
30 -0.000000136140981
31 0.004712115002173
32 0.000362106294824
33 -0.000268218512600
34 -0.000079236118400
35 -0.000061007607674
36 0.000001092293580
37 0.001181889393209
38 -0.000167257339778
39 -0.000003952817062
40 -0.000271825368298
41 -0.000027177185536
42 0.000299002553834
43 -0.000177318450423
44 0.000005071954917
45 0.000005010278328
46 1.00119818411045
47 0.007256421423976
48 -0.005888569730805
49 -0.000543900754044
50 0.001108334758206
51 -0.000009552748847
52 0.000551771184391
53 0.001299157438084
54 -0.000016957141448