
 Working directory              : /var/folders/2v/xbgp75_9785319ghcgb4zr4r0000gr/T//molpro.X698d1SeWC/
 Global scratch directory       : /var/folders/2v/xbgp75_9785319ghcgb4zr4r0000gr/T//molpro.X698d1SeWC/
 Wavefunction directory         : /Users/peterk/wfu/
 Main file repository           : /var/folders/2v/xbgp75_9785319ghcgb4zr4r0000gr/T//molpro.X698d1SeWC/

 id        : peterk

 Nodes        nprocs
 pjk2022.local    1
 GA implementation: MPI file
 GA implementation (serial work in mppx): MPI file

 Using customized tuning parameters: mindgm=1; mindgv=20; mindgc=4; mindgr=1; noblas=0; minvec=7
 default implementation of scratch files=df  


 Variables initialized (1037), CPU time= 0.01 sec
 geometry=malonaldehyde.xyz
 Including file /Users/peterk/current/QtMolpro/malonaldehyde.molpro/run/13.molpro/malonaldehyde.xyz
 set,charge=1
 basis,minao
 rhf
 put,molden,first.molden
 optg
 put,molden,second.molden
 frequencies,analytic
 put,molden,malo.molden
 Commands initialized (841), CPU time= 0.00 sec, 716 directives.
 Default parameters read. Elapsed time= 0.05 sec

 Checking input...
 Passed
1


                                         ***  PROGRAM SYSTEM MOLPRO  ***
                                       Copyright, TTI GmbH Stuttgart, 2015
                                    Version 2023.1 linked Sat Jul 22 07:59:25 2023


 **********************************************************************************************************************************
 LABEL *                                                                                                                                                                 
  64 bit serial version                                                                  DATE: 27-Jul-23          TIME: 17:09:27  
 **********************************************************************************************************************************

 SHA1:             401d111a1dbfa49388eacdf0424f85138b2d30d0
 **********************************************************************************************************************************

 Memory per process:      3146 MW
 Total memory per node:   4194 MW
 Total GA space:          1049 MW

 GA preallocation disabled
 GA check enabled

 Geometry recognized as XYZ

 SETTING CHARGE         =         1.00000000                                  

 Variable memory set to 3145.7 MW

 SETTING BASIS          =    MINAO


 Recomputing integrals since basis changed


 Using spherical harmonics

 Library entry O      S MINAO                selected for orbital group  1
 Library entry O      P MINAO                selected for orbital group  1
 Library entry C      S MINAO                selected for orbital group  2
 Library entry C      P MINAO                selected for orbital group  2
 Library entry H      S MINAO                selected for orbital group  3


 PROGRAM * SEWARD (Integral evaluation for generally contracted gaussian basis sets)     Author: Roland Lindh, 1990

 Geometry written to block  1 of record 700


 Point group  C1  



 ATOMIC COORDINATES

 NR  ATOM    CHARGE       X              Y              Z

   1  O       8.00    2.586090202    1.682234196    0.004157397
   2  O       8.00   -2.586090202    1.682234196    0.004157397
   3  C       6.00   -0.000188973   -2.106855656    0.013039110
   4  C       6.00    2.428676015   -0.628900854   -0.010771439
   5  C       6.00   -2.428676015   -0.628900854   -0.010582466
   6  H       1.00    0.000000000   -3.294548526    1.706044745
   7  H       1.00   -0.000188973   -3.335555583   -1.650675770
   8  H       1.00    4.158909255   -1.794105983   -0.033637125
   9  H       1.00   -4.158909255   -1.793917010   -0.033259180
  10  H       1.00   -0.178579119    2.684507138   -0.145943549

 Bond lengths in Bohr (Angstrom)

 1-4  2.316537787  2-5  2.316536577  3-4  2.843290782  3-5  2.842966354  3-6  2.068062491
     ( 1.225859005)     ( 1.225858365)     ( 1.504604686)     ( 1.504433006)     ( 1.094371541)

 3-7  2.068248223  4-8  2.086128686  5-9  2.086021079
     ( 1.094469826)     ( 1.103931760)     ( 1.103874816)

 Bond angles

  1-4-3  125.21077229   1-4-8  120.06335888   2-5-3  125.21485173   2-5-9  120.05900649

  3-4-8  114.72510203   3-5-9  114.72539573   4-3-5  117.34879260   4-3-6  107.77634996

  4-3-7  107.58183924   5-3-6  107.78456592   5-3-7  107.58712480   6-3-7  108.50231553

 NUCLEAR CHARGE:                   39
 NUMBER OF PRIMITIVE AOS:         150
 NUMBER OF SYMMETRY AOS:          150
 NUMBER OF CONTRACTIONS:           30   (   30A   )
 NUMBER OF INNER CORE ORBITALS:     0   (    0A   )
 NUMBER OF OUTER CORE ORBITALS:     5   (    5A   )
 NUMBER OF VALENCE ORBITALS:       25   (   25A   )


 NUCLEAR REPULSION ENERGY  170.71320206

 Eigenvalues of metric

         1 0.184E+00 0.210E+00 0.212E+00 0.239E+00 0.243E+00 0.252E+00 0.277E+00 0.304E+00


 Contracted 2-electron integrals neglected if value below      1.0D-11
 AO integral compression algorithm  1   Integral accuracy      1.0D-11

     0.786 MB (compressed) written to integral file ( 85.5%)


 NUMBER OF SORTED TWO-ELECTRON INTEGRALS:     108345.     BUFFER LENGTH:  32768
 NUMBER OF SEGMENTS:   1  SEGMENT LENGTH:     108345      RECORD LENGTH: 524288

 Memory used in sort:       0.67 MW

 SORT1 READ      127045. AND WROTE      106325. INTEGRALS IN      1 RECORDS. CPU TIME:     0.00 SEC, REAL TIME:     0.00 SEC
 SORT2 READ      106325. AND WROTE      108345. INTEGRALS IN      3 RECORDS. CPU TIME:     0.00 SEC, REAL TIME:     0.00 SEC

 FILE SIZES:   FILE 1:    31.0 MBYTE,  FILE 4:     4.3 MBYTE,   TOTAL:     35.2 MBYTE

 OPERATOR DM      FOR CENTER  0  COORDINATES:    0.000000    0.000000    0.000000


 **********************************************************************************************************************************
 DATASETS  * FILE   NREC   LENGTH (MB)   RECORD NAMES
              1      19       29.25       500      610      700      900      950      970     1000      129      960     1100   
                                          VAR    BASINP    GEOM    SYMINP    ZMAT    AOBASIS   BASIS     P2S    ABASIS      S 
                                         1400     1410     1200     1210     1080     1600     1650     1300     1700   
                                           T        V       H0       H01     AOSYM     SMH    MOLCAS    ERIS     OPER   

 PROGRAMS   *        TOTAL       INT
 CPU TIMES  *         0.38      0.30
 REAL TIME  *         1.24 SEC
 DISK USED  *        34.07 MB
 **********************************************************************************************************************************


 Program * Restricted Hartree-Fock

 Orbital guess generated from atomic densities.

 Initial occupancy:  19

 NELEC=   38   SYM=1   MS2= 0   THRE=1.0D-08   THRD=1.0D-06   THRG=1.0D-06  HFMA2=F  DIIS_START=2   DIIS_MAX=10   DIIS_INCORE=F

 Level shifts:    0.00 (CLOSED)    0.00 (OPEN)    0.30 (GAP_MIN)

 ITER           ETOT              DE          GRAD        DDIFF     DIIS  NEXP   TIME(IT)  TIME(TOT)  DIAG
   1     -265.25495552    -265.25495552     0.00D+00     0.34D+00     0     0       0.00      0.01    start
   2     -265.34546993      -0.09051441     0.21D-01     0.53D-01     1     0       0.00      0.01    diag
   3     -265.38205034      -0.03658042     0.13D-01     0.19D-01     2     0       0.00      0.01    diag
   4     -265.38310461      -0.00105427     0.14D-02     0.34D-02     3     0       0.00      0.01    diag
   5     -265.38323361      -0.00012900     0.48D-03     0.14D-02     4     0       0.00      0.01    diag
   6     -265.38324897      -0.00001536     0.16D-03     0.49D-03     5     0       0.00      0.01    diag
   7     -265.38325219      -0.00000322     0.76D-04     0.23D-03     6     0       0.00      0.01    diag
   8     -265.38325283      -0.00000064     0.28D-04     0.12D-03     7     0       0.00      0.01    fixocc
   9     -265.38325289      -0.00000006     0.83D-05     0.38D-04     8     0       0.00      0.01    diag
  10     -265.38325290      -0.00000001     0.24D-05     0.11D-04     9     0       0.00      0.01    diag/orth
  11     -265.38325290      -0.00000000     0.81D-06     0.44D-05     9     0       0.00      0.01    diag
  12     -265.38325290      -0.00000000     0.22D-06     0.10D-05     9     0       0.00      0.01    diag
  13     -265.38325290      -0.00000000     0.77D-07     0.21D-06     0     0       0.00      0.01    diag

 Final occupancy:  19

 !RHF STATE 1.1 Energy               -265.383252898427
  RHF One-electron energy            -687.306549819668
  RHF Two-electron energy             251.210094858792
  RHF Kinetic energy                  263.627360838449
  RHF Nuclear energy                  170.713202062448
  RHF Virial quotient                  -1.006660507674

 !RHF STATE 1.1 Dipole moment          -0.26885353    -1.16205099    -0.08622177
 Dipole moment /Debye                  -0.68335752    -2.95363902    -0.21915388

 Orbital energies:

           1.1          2.1          3.1          4.1          5.1          6.1          7.1          8.1          9.1         10.1
    -20.963616   -20.916585   -11.843804   -11.811651   -11.678263    -1.780555    -1.738703    -1.382966    -1.183231    -1.107534

          11.1         12.1         13.1         14.1         15.1         16.1         17.1         18.1         19.1         20.1
     -1.016757    -0.970515    -0.957398    -0.943892    -0.921050    -0.863504    -0.819084    -0.814775    -0.729295    -0.189402

          21.1
     -0.155166


 HOMO     19.1    -0.729295 =     -19.8451eV
 LUMO     20.1    -0.189402 =      -5.1539eV
 LUMO-HOMO         0.539893 =      14.6912eV

 Orbitals saved in record  2100.2


 **********************************************************************************************************************************
 DATASETS  * FILE   NREC   LENGTH (MB)   RECORD NAMES
              1      19       29.25       500      610      700      900      950      970     1000      129      960     1100   
                                          VAR    BASINP    GEOM    SYMINP    ZMAT    AOBASIS   BASIS     P2S    ABASIS      S 
                                         1400     1410     1200     1210     1080     1600     1650     1300     1700   
                                           T        V       H0       H01     AOSYM     SMH    MOLCAS    ERIS     OPER   

              2       4        0.55       700     1000      520     2100   
                                         GEOM     BASIS   MCVARS     RHF  

 PROGRAMS   *        TOTAL   RHF-SCF       INT
 CPU TIMES  *         0.40      0.02      0.30
 REAL TIME  *         1.26 SEC
 DISK USED  *        34.07 MB
 **********************************************************************************************************************************

 Dump information in style MOLDEN to first.molden                                                                    

 Molecular orbitals read from record     2100.2  Type=RHF/CANONICAL  
 Occupation numbers read from record     2100.2  Type=RHF/RHF  
 Orbital energies read from record       2100.2  Type=RHF/CANONICAL  
 Redundancy group numbers read from rec  2100.2  Type=RHF/RHF  

 DUMP ORBITAL  1.1 AS ORBITAL    1  occ=    2.0000  eig=  -20.9636  GROUP=   2
 DUMP ORBITAL  2.1 AS ORBITAL    2  occ=    2.0000  eig=  -20.9166  GROUP=   2
 DUMP ORBITAL  3.1 AS ORBITAL    3  occ=    2.0000  eig=  -11.8438  GROUP=   2
 DUMP ORBITAL  4.1 AS ORBITAL    4  occ=    2.0000  eig=  -11.8117  GROUP=   2
 DUMP ORBITAL  5.1 AS ORBITAL    5  occ=    2.0000  eig=  -11.6783  GROUP=   2
 DUMP ORBITAL  6.1 AS ORBITAL    6  occ=    2.0000  eig=   -1.7806  GROUP=   2
 DUMP ORBITAL  7.1 AS ORBITAL    7  occ=    2.0000  eig=   -1.7387  GROUP=   2
 DUMP ORBITAL  8.1 AS ORBITAL    8  occ=    2.0000  eig=   -1.3830  GROUP=   2
 DUMP ORBITAL  9.1 AS ORBITAL    9  occ=    2.0000  eig=   -1.1832  GROUP=   2
 DUMP ORBITAL 10.1 AS ORBITAL   10  occ=    2.0000  eig=   -1.1075  GROUP=   2
 DUMP ORBITAL 11.1 AS ORBITAL   11  occ=    2.0000  eig=   -1.0168  GROUP=   2
 DUMP ORBITAL 12.1 AS ORBITAL   12  occ=    2.0000  eig=   -0.9705  GROUP=   2
 DUMP ORBITAL 13.1 AS ORBITAL   13  occ=    2.0000  eig=   -0.9574  GROUP=   2
 DUMP ORBITAL 14.1 AS ORBITAL   14  occ=    2.0000  eig=   -0.9439  GROUP=   2
 DUMP ORBITAL 15.1 AS ORBITAL   15  occ=    2.0000  eig=   -0.9210  GROUP=   2
 DUMP ORBITAL 16.1 AS ORBITAL   16  occ=    2.0000  eig=   -0.8635  GROUP=   2
 DUMP ORBITAL 17.1 AS ORBITAL   17  occ=    2.0000  eig=   -0.8191  GROUP=   2
 DUMP ORBITAL 18.1 AS ORBITAL   18  occ=    2.0000  eig=   -0.8148  GROUP=   2
 DUMP ORBITAL 19.1 AS ORBITAL   19  occ=    2.0000  eig=   -0.7293  GROUP=   2

 Total charge:      38.000000

 **********************************************************************************************************************************


 PROGRAM * OPT (Geometry optimization)     Authors: F. Eckert and H.-J. Werner


 BFGS update of hessian

 *** Long output written to logfile /Users/peterk/current/QtMolpro/malonaldehyde.molpro/run/13.molpro/13.log ***


 Geometry optimization using default procedure for command RHF-SCF

 Geometry written to block  1 of record 700

 PQS Optimization using delocalized internal coordinates

 Point group c1. Number of degrees of freedom:   24

 ITER.   ENERGY(OLD)    ENERGY(NEW)      DE          GRADMAX     GRADNORM    GRADRMS     STEPMAX     STEPLEN     STEPRMS   CPU-time
   1  -265.38325290  -264.35311414     1.03013875  0.19107581  0.35433251  0.07232782  0.35500955  0.50000000  0.10206207      1.11
   2  -264.35311414  -265.42389815    -1.07078400 17.05979591 18.34878090  3.74542922  0.46487546  0.50000000  0.10206207      2.21
   3  -265.42389815  -265.46071278    -0.03681463  0.10429961  0.18999874  0.03878333  0.26638030  0.45833190  0.09355661      3.21
   4  -265.46071278  -265.46205945    -0.00134667  0.06555613  0.07578082  0.01546870  0.08097522  0.16765047  0.03422151      4.22
   5  -265.46205945  -265.46244069    -0.00038124  0.05441196  0.06389851  0.01304323  0.09067560  0.16750605  0.03419203      5.22
   6  -265.46244069  -265.46215382     0.00028686  0.05680052  0.05912357  0.01206855  0.14502706  0.23695502  0.04836824      6.23
   7  -265.46215382  -265.46300126    -0.00084744  0.06145839  0.06443161  0.01315205  0.08306876  0.13797909  0.02816486      7.24
   8  -265.46300126  -265.46316836    -0.00016710  0.05861133  0.06322498  0.01290575  0.03853399  0.06179975  0.01261482      8.29
   9  -265.46316836  -265.46344011    -0.00027175  0.05720397  0.06018845  0.01228591  0.03455985  0.06899705  0.01408396      9.32
  10  -265.46344011  -265.46466806    -0.00122796  0.05700850  0.05896150  0.01203547  0.02325771  0.03811363  0.00777991     10.34
  11  -265.46466806  -265.41464874     0.05001932  0.05571400  0.05773054  0.01178420  0.28297043  0.34873614  0.07118547     11.38
  12  -265.41464874  -265.46572135    -0.05107261  1.12095220  1.14891946  0.23452220  0.24395988  0.25935499  0.05294062     12.47
  13  -265.46572135  -265.46736513    -0.00164378  0.06736870  0.07355054  0.01501344  0.04495228  0.10717753  0.02187752     13.55
  14  -265.46736513  -265.46860569    -0.00124056  0.05515573  0.05644799  0.01152240  0.03523617  0.08435582  0.01721906     14.62
  15  -265.46860569  -265.46984798    -0.00124230  0.04113214  0.04211103  0.00859588  0.04128630  0.09542260  0.01947806     15.70
  16  -265.46984798  -265.47052941    -0.00068142  0.01188560  0.02180161  0.00445023  0.03817472  0.10136856  0.02069177     16.76
  17  -265.47052941  -265.47140270    -0.00087329  0.01164487  0.02309758  0.00471477  0.04827914  0.12006191  0.02450753     17.81
  18  -265.47140270  -265.47163384    -0.00023114  0.01194164  0.01904007  0.00388654  0.04104699  0.08506733  0.01736430     18.86
  19  -265.47163384  -265.47191672    -0.00028288  0.02149342  0.02313298  0.00472200  0.02012359  0.04998118  0.01020237     19.90
  20  -265.47191672  -265.47197416    -0.00005744  0.00687113  0.00798530  0.00162999  0.01639872  0.03250677  0.00663542     20.94
  21  -265.47197416  -265.47200741    -0.00003326  0.00299030  0.00461029  0.00094107  0.01920119  0.03599859  0.00734818     21.98
  22  -265.47200741  -265.47201834    -0.00001093  0.00514862  0.00564384  0.00115204  0.00938170  0.01854529  0.00378554     23.02
  23  -265.47201834  -265.47202005    -0.00000171  0.00066805  0.00097938  0.00019991  0.00543997  0.00972715  0.00198555     24.08
  24  -265.47202005  -265.47202028    -0.00000023  0.00066892  0.00079276  0.00016182  0.00187507  0.00342520  0.00069917     25.14
  25  -265.47202028  -265.47202042    -0.00000015  0.00026952  0.00038128  0.00007783  0.00087251  0.00179309  0.00036601     26.19

 END OF GEOMETRY OPTIMIZATION.

 Geometry written to block  1 of record 700

 Current geometry (xyz format, in Angstrom)

   10
 RHF-SCF000/MINAO  ENERGY=-265.47202042
 O          1.2061474272        1.4140208290       -0.0185944168
 O         -1.2265235773        1.3963983831       -0.0148041661
 C          0.0058255736       -0.8027714373        0.0097285217
 C          1.3149109710        0.1023348070       -0.0032954237
 C         -1.3162813064        0.0832570668        0.0007158224
 H          0.0124775357       -1.5149375781        0.9736875421
 H          0.0097453020       -1.5388092845       -0.9360936567
 H          2.4180640610       -0.4259502684        0.0009926810
 H         -2.4116930508       -0.4608705802        0.0082796787
 H         -0.0126729358        1.7473280625       -0.0206165826

 **********************************************************************************************************************************


 **********************************************************************************************************************************
 DATASETS  * FILE   NREC   LENGTH (MB)   RECORD NAMES
              1      19       29.25       500      610      700      900      950      970     1000      129      960     1100   
                                          VAR    BASINP    GEOM    SYMINP    ZMAT    AOBASIS   BASIS     P2S    ABASIS      S 
                                         1400     1410     1200     1210     1080     1600     1650     1300     1700   
                                           T        V       H0       H01     AOSYM     SMH    MOLCAS    ERIS     OPER   

              2       4        0.55       700     1000      520     2100   
                                         GEOM     BASIS   MCVARS     RHF  

 PROGRAMS   *        TOTAL      OPTG   RHF-SCF       INT
 CPU TIMES  *        26.59     26.19      0.02      0.30
 REAL TIME  *        28.73 SEC
 DISK USED  *        34.22 MB
 **********************************************************************************************************************************

 Dump information in style MOLDEN to second.molden                                                                   

 Molecular orbitals read from record     2100.2  Type=RHF/CANONICAL  
 Occupation numbers read from record     2100.2  Type=RHF/RHF  
 Orbital energies read from record       2100.2  Type=RHF/CANONICAL  
 Redundancy group numbers read from rec  2100.2  Type=RHF/RHF  

 DUMP ORBITAL  1.1 AS ORBITAL    1  occ=    2.0000  eig=  -20.8957  GROUP=   2
 DUMP ORBITAL  2.1 AS ORBITAL    2  occ=    2.0000  eig=  -20.8956  GROUP=   2
 DUMP ORBITAL  3.1 AS ORBITAL    3  occ=    2.0000  eig=  -11.8089  GROUP=   2
 DUMP ORBITAL  4.1 AS ORBITAL    4  occ=    2.0000  eig=  -11.8089  GROUP=   2
 DUMP ORBITAL  5.1 AS ORBITAL    5  occ=    2.0000  eig=  -11.6805  GROUP=   2
 DUMP ORBITAL  6.1 AS ORBITAL    6  occ=    2.0000  eig=   -1.7116  GROUP=   2
 DUMP ORBITAL  7.1 AS ORBITAL    7  occ=    2.0000  eig=   -1.6743  GROUP=   2
 DUMP ORBITAL  8.1 AS ORBITAL    8  occ=    2.0000  eig=   -1.3264  GROUP=   2
 DUMP ORBITAL  9.1 AS ORBITAL    9  occ=    2.0000  eig=   -1.1397  GROUP=   2
 DUMP ORBITAL 10.1 AS ORBITAL   10  occ=    2.0000  eig=   -1.0984  GROUP=   2
 DUMP ORBITAL 11.1 AS ORBITAL   11  occ=    2.0000  eig=   -0.9725  GROUP=   2
 DUMP ORBITAL 12.1 AS ORBITAL   12  occ=    2.0000  eig=   -0.9097  GROUP=   2
 DUMP ORBITAL 13.1 AS ORBITAL   13  occ=    2.0000  eig=   -0.9088  GROUP=   2
 DUMP ORBITAL 14.1 AS ORBITAL   14  occ=    2.0000  eig=   -0.9042  GROUP=   2
 DUMP ORBITAL 15.1 AS ORBITAL   15  occ=    2.0000  eig=   -0.8871  GROUP=   2
 DUMP ORBITAL 16.1 AS ORBITAL   16  occ=    2.0000  eig=   -0.8078  GROUP=   2
 DUMP ORBITAL 17.1 AS ORBITAL   17  occ=    2.0000  eig=   -0.7982  GROUP=   2
 DUMP ORBITAL 18.1 AS ORBITAL   18  occ=    2.0000  eig=   -0.7848  GROUP=   2
 DUMP ORBITAL 19.1 AS ORBITAL   19  occ=    2.0000  eig=   -0.7147  GROUP=   2

 Total charge:      38.000000

 **********************************************************************************************************************************


 PROGRAM * HESSIAN

 PROGRAM * MCKINLEY (Hessian of the energy)     Author: A. Bernhardsson, R. Lindh

 Orbitals from record         2100.2

 Number of closed-shell orbitals: 19 ( 19 )
 Number of occupied orbitals:     19 ( 19 )

 Number of electrons= 38     Singlet     Space symmetry=1      Wavefunction type: CLOSED          


 McKinley needed     11.17 seconds of CPU time

 Entering CPHF calculation

 CPHF needed 251 iterations for 30 perturbations.  Total CPU time:    0.20 sec


 RHF-SCF hessian saved to record  5300.2

 PROGRAM * FREQUENCIES (Calculation of harmonic vibrational spectra for RHF-SCF)


 Permanent Dipole Moment [debye]
 1-3    0.000000    0.000000    0.000000

 Dipole Moment Norm    0.0000000 [debye]

 Dipole Moment Derivatives [debye/ang]
              1             2             3             4             5             6             7             8
    1    0.00000000    0.00000000    0.00000000    0.00000000    0.00000000    0.00000000    0.00000000    0.00000000
    2    0.00000000    0.00000000    0.00000000    0.00000000    0.00000000    0.00000000    0.00000000    0.00000000
    3    0.00000000    0.00000000    0.00000000    0.00000000    0.00000000    0.00000000    0.00000000    0.00000000
              9            10            11            12            13            14            15            16
    1    0.00000000    0.00000000    0.00000000    0.00000000    0.00000000    0.00000000    0.00000000    0.00000000
    2    0.00000000    0.00000000    0.00000000    0.00000000    0.00000000    0.00000000    0.00000000    0.00000000
    3    0.00000000    0.00000000    0.00000000    0.00000000    0.00000000    0.00000000    0.00000000    0.00000000
             17            18            19            20            21            22            23            24
    1    0.00000000    0.00000000    0.00000000    0.00000000    0.00000000    0.00000000    0.00000000    0.00000000
    2    0.00000000    0.00000000    0.00000000    0.00000000    0.00000000    0.00000000    0.00000000    0.00000000
    3    0.00000000    0.00000000    0.00000000    0.00000000    0.00000000    0.00000000    0.00000000    0.00000000
             25            26            27            28            29            30
    1    0.00000000    0.00000000    0.00000000    0.00000000    0.00000000    0.00000000
    2    0.00000000    0.00000000    0.00000000    0.00000000    0.00000000    0.00000000
    3    0.00000000    0.00000000    0.00000000    0.00000000    0.00000000    0.00000000

 Projecting out rotations and translations

   Low Vibration      Wavenumber
        Nr             [1/cm] 
        1                0.00
        2                0.00
        3                0.00
        4                0.00
        5                0.00
        6                0.00

     Vibration        Wavenumber
        Nr             [1/cm] 
        1              198.38
        2              285.50
        3              484.65
        4              590.65
        5              635.35
        6              725.01
        7              828.70
        8              833.87
        9              839.74
       10              930.77
       11             1000.16
       12             1130.19
       13             1166.03
       14             1174.04
       15             1274.39
       16             1310.00
       17             1358.43
       18             1700.27
       19             1725.81
       20             1750.33
       21             2911.62
       22             2916.71
       23             2928.01
       24             2978.83

 FREQUENCIES * CALCULATION OF NORMAL MODES FOR RHF-SCF


 Atomic Coordinates

  Nr  Atom  Charge       X              Y              Z

   1   O     8.00    2.279288303    2.672112101   -0.035138355
   2   O     8.00   -2.317793647    2.638810505   -0.027975819
   3   C     6.00    0.011008739   -1.517018157    0.018384242
   4   C     6.00    2.484821613    0.193384758   -0.006227448
   5   C     6.00   -2.487411172    0.157333054    0.001352708
   6   H     1.00    0.023579125   -2.862817118    1.840002785
   7   H     1.00    0.018415952   -2.907928106   -1.768960638
   8   H     1.00    4.569478827   -0.804929350    0.001875895
   9   H     1.00   -4.557439363   -0.870919175    0.015646325
  10   H     1.00   -0.023948378    3.301971488   -0.038959695

 Gradient norm at reference geometry: 0.18235D-03

 Molecule is not in standard orientation!
 Symmetry information for normal modes not available!

 Normal Modes

                              1 A         2 A         3 A         4 A         5 A  
 Wavenumbers [cm-1]          198.38      285.50      484.65      590.65      635.35
 Intensities [km/mol]          0.00        0.00        0.00        0.00        0.00
 Intensities [relative]        0.00        0.00        0.00        0.00        0.00
           OX1             -0.00006     0.00019     0.09669     0.13930    -0.00024
           OY1             -0.00050     0.00150     0.09425    -0.01128     0.00026
           OZ1             -0.04331     0.12792    -0.00125    -0.00002     0.02279
           OX2             -0.00006    -0.00018     0.09805    -0.13912     0.00031
           OY2             -0.00049    -0.00150    -0.09285    -0.01329     0.00027
           OZ2             -0.04325    -0.12794     0.00096     0.00041     0.02279
           CX3             -0.00013     0.00003    -0.07608    -0.00068    -0.00016
           CY3             -0.00110    -0.00000    -0.00055     0.09420    -0.00146
           CZ3             -0.08981    -0.00002     0.00012    -0.00131    -0.11432
           CX4              0.00018    -0.00016    -0.09115     0.08888    -0.00012
           CY4              0.00124    -0.00121     0.05522    -0.02091    -0.00021
           CZ4              0.10402    -0.10249    -0.00052     0.00008    -0.02033
           CX5              0.00012     0.00013    -0.09033    -0.08856     0.00007
           CY5              0.00124     0.00120    -0.05653    -0.02221    -0.00022
           CZ5              0.10397     0.10253     0.00080     0.00035    -0.02033
           HX6              0.00145     0.09960     0.02132    -0.00063    -0.00279
           HY6             -0.26460     0.00066     0.00016     0.08271     0.42650
           HZ6             -0.29312    -0.00022    -0.00003    -0.01432     0.21039
           HX7             -0.00230    -0.09951     0.02145    -0.00058     0.00339
           HY7              0.25720    -0.00066     0.00015     0.08175    -0.42119
           HZ7             -0.29961     0.00008    -0.00003     0.01302     0.22097
           HX8              0.00061    -0.00054    -0.12977     0.03218     0.00076
           HY8              0.00415    -0.00374    -0.02224    -0.14920     0.00515
           HZ8              0.35100    -0.31787     0.00045     0.00237     0.41230
           HX9              0.00039     0.00037    -0.13007    -0.03005     0.00039
           HY9              0.00413     0.00372     0.02037    -0.14961     0.00515
           HZ9              0.35086     0.31803    -0.00004     0.00246     0.41230
           HX10            -0.00022    -0.00011     0.19494     0.00052    -0.00026
           HY10            -0.00168     0.00000     0.00142    -0.08436    -0.00147
           HZ10            -0.14334    -0.00003    -0.00032     0.00073    -0.13250

                              6 A         7 A         8 A         9 A        10 A  
 Wavenumbers [cm-1]          725.01      828.70      833.87      839.74      930.77
 Intensities [km/mol]          0.00        0.00        0.00        0.00        0.00
 Intensities [relative]        0.00        0.00        0.00        0.00        0.00
           OX1             -0.02965     0.00013    -0.08250     0.04870    -0.00629
           OY1              0.01004     0.00027    -0.06636     0.00767    -0.03709
           OZ1             -0.00005     0.01733     0.00093    -0.00015     0.00044
           OX2             -0.02953    -0.00011     0.08346    -0.04880    -0.00682
           OY2             -0.01048    -0.00012    -0.06516     0.00698     0.03699
           OZ2              0.00015    -0.01733     0.00063     0.00000    -0.00042
           CX3             -0.00563     0.00003    -0.00150    -0.00025     0.09691
           CY3             -0.00002    -0.00022     0.20670     0.03413     0.00071
           CZ3             -0.00000    -0.00000    -0.00244    -0.00046    -0.00015
           CX4             -0.01496    -0.00019     0.01267    -0.15084    -0.06980
           CY4             -0.06311    -0.00095    -0.01849    -0.01144    -0.01257
           CZ4              0.00074    -0.08334     0.00012     0.00035     0.00031
           CX5             -0.01588     0.00010    -0.01239     0.15099    -0.06997
           CY5              0.06288     0.00098    -0.01867    -0.00926     0.01155
           CZ5             -0.00069     0.08335     0.00034    -0.00012    -0.00009
           HX6              0.10979     0.34436    -0.00109    -0.00031     0.53091
           HY6              0.00084     0.00230     0.19279     0.03806     0.00387
           HZ6             -0.00016    -0.00050    -0.03122    -0.00051    -0.00081
           HX7              0.10947    -0.34378    -0.00176    -0.00026     0.53157
           HY7              0.00079    -0.00271     0.19402     0.03791     0.00386
           HZ7             -0.00015     0.00049     0.02630    -0.00037    -0.00080
           HX8              0.17174     0.00082    -0.03847    -0.30589    -0.18111
           HY8              0.24991     0.00625    -0.12215    -0.28090    -0.20599
           HZ8             -0.00308     0.53858     0.00200     0.00397     0.00254
           HX9              0.17537    -0.00075     0.04022     0.30992    -0.18408
           HY9             -0.24751    -0.00600    -0.12156    -0.27646     0.20337
           HZ9              0.00259    -0.53859     0.00071     0.00311    -0.00201
           HX10             0.80764    -0.00026     0.00051    -0.00070     0.02147
           HY10             0.00588     0.00009    -0.07571     0.08873     0.00016
           HZ10            -0.00134    -0.00000     0.00100    -0.00117    -0.00003

                             11 A        12 A        13 A        14 A        15 A  
 Wavenumbers [cm-1]         1000.16     1130.19     1166.03     1174.04     1274.39
 Intensities [km/mol]          0.00        0.00        0.00        0.00        0.00
 Intensities [relative]        0.00        0.00        0.00        0.00        0.00
           OX1              0.00004    -0.00005     0.04857     0.04342    -0.00003
           OY1              0.00029    -0.00009    -0.05022    -0.06176    -0.00041
           OZ1              0.02486    -0.01230     0.00052     0.00064    -0.03599
           OX2              0.00003    -0.00001    -0.04790     0.04246    -0.00008
           OY2              0.00029     0.00009    -0.05101     0.06231    -0.00044
           OZ2              0.02486     0.01230     0.00067    -0.00078    -0.03599
           CX3              0.00018     0.00002    -0.00045    -0.00678    -0.00003
           CY3              0.00143    -0.00000     0.06228     0.00000    -0.00013
           CZ3              0.12028    -0.00000    -0.00076     0.00001    -0.01369
           CX4             -0.00019     0.00016    -0.08194    -0.06216    -0.00001
           CY4             -0.00141     0.00100    -0.01649     0.02200     0.00002
           CZ4             -0.11964     0.08537     0.00035    -0.00009     0.00336
           CX5             -0.00016    -0.00008     0.08227    -0.06172     0.00004
           CY5             -0.00141    -0.00099    -0.01526    -0.02292     0.00005
           CZ5             -0.11965    -0.08536     0.00010     0.00028     0.00336
           HX6              0.00177     0.59909    -0.00066     0.11264    -0.00020
           HY6             -0.25320     0.00437     0.07753     0.00088     0.03357
           HZ6             -0.06986    -0.00091     0.00529    -0.00017     0.00892
           HX7             -0.00195    -0.59898    -0.00067     0.11178     0.00028
           HY7              0.25138    -0.00436     0.07739     0.00087    -0.03361
           HZ7             -0.07628     0.00091    -0.00718    -0.00017     0.01004
           HX8              0.00077    -0.00055     0.16293     0.14311     0.00023
           HY8              0.00480    -0.00299     0.52758     0.51826     0.00152
           HZ8              0.40012    -0.21897    -0.00657    -0.00647     0.12510
           HX9              0.00036     0.00006    -0.17075     0.15030     0.00014
           HY9              0.00479     0.00298     0.52594    -0.51532     0.00158
           HZ9              0.40011     0.21895    -0.00605     0.00601     0.12510
           HX10            -0.00004     0.00017     0.00001    -0.32387     0.00149
           HY10            -0.00030     0.00000     0.03457    -0.00235     0.01115
           HZ10            -0.02526    -0.00001    -0.00059     0.00061     0.95636

                             16 A        17 A        18 A        19 A        20 A  
 Wavenumbers [cm-1]         1310.00     1358.43     1700.27     1725.81     1750.33
 Intensities [km/mol]          0.00        0.00        0.00        0.00        0.00
 Intensities [relative]        0.00        0.00        0.00        0.00        0.00
           OX1             -0.00027     0.00747     0.01721    -0.00584    -0.00210
           OY1             -0.00640    -0.00918    -0.10133    -0.08951    -0.00886
           OZ1              0.00006     0.00009     0.00117     0.00107     0.00011
           OX2              0.00036     0.00734    -0.01571    -0.00719     0.00224
           OY2             -0.00639     0.00929    -0.10185     0.08908    -0.00895
           OZ2              0.00006    -0.00012     0.00122    -0.00104     0.00010
           CX3              0.00056     0.20779     0.00031    -0.03022    -0.00004
           CY3             -0.07707     0.00151    -0.03623    -0.00027     0.00749
           CZ3              0.00094    -0.00032     0.00043     0.00005    -0.00009
           CX4              0.00518    -0.07878     0.01067     0.01837     0.02303
           CY4              0.00642    -0.00491     0.15699     0.14965    -0.03103
           CZ4             -0.00007     0.00018    -0.00188    -0.00180     0.00033
           CX5             -0.00527    -0.07884    -0.01301     0.02047    -0.02260
           CY5              0.00635     0.00377     0.15729    -0.14892    -0.03116
           CZ5             -0.00005     0.00006    -0.00184     0.00173     0.00040
           HX6             -0.00305    -0.38357     0.00051    -0.05543    -0.00007
           HY6              0.51397    -0.00278    -0.06240    -0.00049     0.01462
           HZ6              0.44113     0.00060    -0.01955     0.00005    -0.00359
           HX7             -0.00433    -0.38369     0.00057    -0.05551    -0.00006
           HY7              0.50268    -0.00279    -0.06197    -0.00049     0.01472
           HZ7             -0.45381     0.00057     0.02108     0.00012     0.00322
           HX8             -0.00648    -0.09015    -0.11759    -0.09127     0.04808
           HY8             -0.02080     0.02254    -0.03220    -0.05151    -0.03328
           HZ8              0.00027    -0.00005     0.00060     0.00076     0.00032
           HX9              0.00679    -0.08982     0.11832    -0.09169    -0.04747
           HY9             -0.02071    -0.02386    -0.03067     0.05006    -0.03404
           HZ9              0.00025     0.00033     0.00024    -0.00047     0.00046
           HX10             0.00004     0.11420    -0.00137     0.39799    -0.00738
           HY10            -0.00585     0.00084     0.09921     0.00371     0.97256
           HZ10             0.00037    -0.00012    -0.00116    -0.00060    -0.01131

                             21 A        22 A        23 A        24 A  
 Wavenumbers [cm-1]         2911.62     2916.71     2928.01     2978.83
 Intensities [km/mol]          0.00        0.00        0.00        0.00
 Intensities [relative]        0.00        0.00        0.00        0.00
           OX1              0.00207     0.00325     0.00134     0.00000
           OY1             -0.00230    -0.00534    -0.00500    -0.00000
           OZ1              0.00003     0.00006     0.00006    -0.00065
           OX2             -0.00204     0.00317    -0.00126    -0.00000
           OY2             -0.00235     0.00538    -0.00501    -0.00000
           OZ2              0.00003    -0.00007     0.00006    -0.00065
           CX3              0.00038     0.00787    -0.00038    -0.00013
           CY3             -0.05355    -0.00005     0.05234    -0.00135
           CZ3              0.00083    -0.00001    -0.00087    -0.08910
           CX4             -0.04058    -0.05704    -0.04208     0.00003
           CY4              0.02301     0.03046     0.02261     0.00000
           CZ4             -0.00020    -0.00026    -0.00019     0.00091
           CX5              0.04041    -0.05652     0.04169    -0.00002
           CY5              0.02368    -0.03123     0.02318     0.00000
           CZ5             -0.00032     0.00043    -0.00032     0.00091
           HX6             -0.00271    -0.00073     0.00264     0.00375
           HY6              0.28932     0.00058    -0.28276    -0.40355
           HZ6             -0.39533    -0.00080     0.38124     0.53208
           HX7             -0.00158    -0.00073     0.00155    -0.00225
           HY7              0.29753     0.00060    -0.29019     0.41925
           HZ7              0.38600     0.00078    -0.37155     0.52508
           HX8              0.41516     0.60142     0.42943    -0.00024
           HY8             -0.20131    -0.28874    -0.21041     0.00013
           HZ8              0.00165     0.00235     0.00173     0.00066
           HX9             -0.41395     0.59649    -0.42564     0.00025
           HY9             -0.20814     0.29703    -0.21623     0.00014
           HZ9              0.00289    -0.00413     0.00300     0.00066
           HX10             0.00022    -0.03876     0.00006     0.00000
           HY10            -0.02168    -0.00031    -0.01079     0.00002
           HZ10             0.00025     0.00006     0.00014     0.00220


 Normal Modes of low/zero frequencies

                                  1           2           3           4           5
 Wavenumbers [cm-1]            0.00        0.00        0.00        0.00        0.00
 Intensities [km/mol]          0.00        0.00        0.00        0.00        0.00
 Intensities [relative]        0.00        0.00        0.00        0.00        0.00
           OX1             -0.00000     0.00000     0.00000    -0.00000     0.13784
           OY1              0.05810     0.11031     0.05398     0.01030    -0.05012
           OZ1             -0.08720    -0.04894     0.17293    -0.00852     0.00083
           OX2              0.00020     0.00079    -0.00000    -0.00091     0.13711
           OY2              0.03840     0.00575     0.01586     0.12526     0.05067
           OZ2             -0.05175    -0.03093    -0.00537    -0.05897    -0.00067
           CX3              0.01871     0.09541     0.03258    -0.10537     0.04597
           CY3              0.05120     0.05806     0.03450     0.06686    -0.00039
           CZ3              0.16532    -0.09513     0.02839    -0.04725    -0.00011
           CX4              0.01105     0.05644     0.01938    -0.06232     0.08348
           CY4              0.06063     0.11460     0.05529     0.00506    -0.05463
           CZ4              0.05091    -0.08248     0.14729    -0.01449     0.00078
           CX5              0.01126     0.05729     0.01939    -0.06330     0.08269
           CY5              0.03931     0.00151     0.01406     0.12941     0.05439
           CZ5              0.08926    -0.06300    -0.04557    -0.06905    -0.00085
           HX6              0.03790     0.13330    -0.02677    -0.15897     0.01587
           HY6              0.15385     0.03430     0.00991     0.06050    -0.00075
           HZ6              0.24103    -0.11294     0.01064    -0.05158    -0.00017
           HX7              0.01173     0.11985     0.11323    -0.12058     0.01606
           HY7             -0.04945     0.08182     0.05878     0.07260    -0.00046
           HZ7              0.24361    -0.11351     0.00983    -0.05178    -0.00018
           HX8              0.01547     0.07916     0.02732    -0.08737     0.06159
           HY8              0.07020     0.16187     0.07242    -0.04710    -0.10033
           HZ8              0.09192    -0.10402     0.21441     0.00502     0.00141
           HX9              0.01586     0.08072     0.02734    -0.08918     0.06014
           HY9              0.03107    -0.04572    -0.00325     0.18114     0.09978
           HZ9              0.16230    -0.06827    -0.13960    -0.09513    -0.00157
           HX10            -0.00278    -0.01433    -0.00506     0.01580     0.15165
           HY10             0.04781     0.05802     0.03498     0.06792     0.00038
           HZ10            -0.10586    -0.03138     0.09236    -0.03165     0.00011

                                  6
 Wavenumbers [cm-1]            0.00
 Intensities [km/mol]          0.00
 Intensities [relative]        0.00
           OX1              0.00000
           OY1              0.03992
           OZ1              0.03736
           OX2              0.00013
           OY2              0.05340
           OZ2              0.18502
           CX3             -0.01074
           CY3              0.04513
           CZ3             -0.00996
           CX4             -0.00644
           CY4              0.03848
           CZ4             -0.04067
           CX5             -0.00631
           CY5              0.05306
           CZ5              0.11904
           HX6              0.04415
           HY6             -0.00737
           HZ6             -0.04913
           HX7             -0.07266
           HY7              0.09659
           HZ7             -0.05026
           HX8             -0.00915
           HY8              0.03204
           HZ8             -0.13682
           HX9             -0.00891
           HY9              0.05881
           HZ9              0.15634
           HX10             0.00175
           HY10             0.04689
           HZ10             0.12996


 Frequencies dumped to record   5400.2

 Zero point energy:  0.07216652 [H]    15838.72 [1/CM]      189.47 [KJ/MOL]
 Frequency information read from record  5400.2


 **********************************************************************************************************************************
 DATASETS  * FILE   NREC   LENGTH (MB)   RECORD NAMES
              1      19       29.25       500      610      700      900      950      970     1000      129      960     1100   
                                          VAR    BASINP    GEOM    SYMINP    ZMAT    AOBASIS   BASIS     P2S    ABASIS      S 
                                         1400     1410     1200     1210     1080     1600     1650     1300     1700   
                                           T        V       H0       H01     AOSYM     SMH    MOLCAS    ERIS     OPER   

              2       7        0.59       700     1000      520     2100     5300     5450     5400   
                                         GEOM     BASIS   MCVARS     RHF     HESS     NMOD     FREQ   

              4       5        0.54      4100     4000     4200     4300     4400   

 PROGRAMS   *        TOTAL      FREQ      OPTG   RHF-SCF       INT
 CPU TIMES  *        37.98     11.38     26.19      0.02      0.30
 REAL TIME  *        40.29 SEC
 DISK USED  *        34.22 MB
 **********************************************************************************************************************************

 Dump information in style MOLDEN to malo.molden                                                                     

 Molecular orbitals read from record     2100.2  Type=RHF/CANONICAL  
 Occupation numbers read from record     2100.2  Type=RHF/RHF  
 Orbital energies read from record       2100.2  Type=RHF/CANONICAL  
 Redundancy group numbers read from rec  2100.2  Type=RHF/RHF  

 DUMP ORBITAL  1.1 AS ORBITAL    1  occ=    2.0000  eig=  -20.8957  GROUP=   2
 DUMP ORBITAL  2.1 AS ORBITAL    2  occ=    2.0000  eig=  -20.8956  GROUP=   2
 DUMP ORBITAL  3.1 AS ORBITAL    3  occ=    2.0000  eig=  -11.8089  GROUP=   2
 DUMP ORBITAL  4.1 AS ORBITAL    4  occ=    2.0000  eig=  -11.8089  GROUP=   2
 DUMP ORBITAL  5.1 AS ORBITAL    5  occ=    2.0000  eig=  -11.6805  GROUP=   2
 DUMP ORBITAL  6.1 AS ORBITAL    6  occ=    2.0000  eig=   -1.7116  GROUP=   2
 DUMP ORBITAL  7.1 AS ORBITAL    7  occ=    2.0000  eig=   -1.6743  GROUP=   2
 DUMP ORBITAL  8.1 AS ORBITAL    8  occ=    2.0000  eig=   -1.3264  GROUP=   2
 DUMP ORBITAL  9.1 AS ORBITAL    9  occ=    2.0000  eig=   -1.1397  GROUP=   2
 DUMP ORBITAL 10.1 AS ORBITAL   10  occ=    2.0000  eig=   -1.0984  GROUP=   2
 DUMP ORBITAL 11.1 AS ORBITAL   11  occ=    2.0000  eig=   -0.9725  GROUP=   2
 DUMP ORBITAL 12.1 AS ORBITAL   12  occ=    2.0000  eig=   -0.9097  GROUP=   2
 DUMP ORBITAL 13.1 AS ORBITAL   13  occ=    2.0000  eig=   -0.9088  GROUP=   2
 DUMP ORBITAL 14.1 AS ORBITAL   14  occ=    2.0000  eig=   -0.9042  GROUP=   2
 DUMP ORBITAL 15.1 AS ORBITAL   15  occ=    2.0000  eig=   -0.8871  GROUP=   2
 DUMP ORBITAL 16.1 AS ORBITAL   16  occ=    2.0000  eig=   -0.8078  GROUP=   2
 DUMP ORBITAL 17.1 AS ORBITAL   17  occ=    2.0000  eig=   -0.7982  GROUP=   2
 DUMP ORBITAL 18.1 AS ORBITAL   18  occ=    2.0000  eig=   -0.7848  GROUP=   2
 DUMP ORBITAL 19.1 AS ORBITAL   19  occ=    2.0000  eig=   -0.7147  GROUP=   2

 Total charge:      38.000000
 Frequency information read from record  5400.2

 **********************************************************************************************************************************

 RHF/MINAO//RHF/MINAO energy=   -265.472020421610

   OPTG(RHF-SCF)         RHF-SCF
   -265.47202042   -265.38325290
 **********************************************************************************************************************************
 Molpro calculation terminated
