[Molden Format]
[Molpro variables]
_NUMVAR=  1065.000000000000    
_AVOGAD= 0.6022140760000000E+24
_BOLTZ= 0.1380649000000000E-22
_CLIGHTSI=  299792458.0000000    
_JOULE= 0.4359744722207100E-17
_JPCAL=  4.184000000000000    
_PLANCK= 0.6626070150000000E-33
_BOHR= 0.5291772109030000E-10
_ECHARG= 0.1602176634000000E-18
_ENULL= 0.8854187812800001E-11
_MU= 0.1660539066600000E-26
_EMASS= 0.9109383701500001E-30
_AMU2AU=  1822.888486217313    
_CLIGHT=  29979245800.00000    
_EV= 0.3674932217565494E-01
_KJOULE= 0.3808798847133432E-03
_KJOULE/MOL= 0.3808798847133432E-03
_CM= 0.4556335252912009E-05
_CM-1= 0.4556335252912009E-05
_DEB2SI= 0.3335640951981520E-29
_KCAL= 0.1593601437640628E-02
_KCAL/MOL= 0.1593601437640628E-02
_KELVIN= 0.3166811563455608E-05
_HERTZ= 0.1519829846057038E-15
_HZ= 0.1519829846057038E-15
_TOA= 0.5291772109030000    
_TOANG= 0.5291772109030000    
_TORAD= 0.1745329251994330E-01
_TOCM=  219474.6313631965    
_TODEBYE=  2.541746473194078    
_TOE= 0.4803204712570263E-09
_TOEV=  27.21138624598803    
_TOHERTZ=  6579683920501656.    
_TOHZ=  6579683920501656.    
_TOK=  315775.0248040668    
_TOKCAL=  627.5094740630558    
_TOKELVIN=  315775.0248040668    
_TOKJ=  2625.499639479825    
_TOKJOULE=  2625.499639479825    
_TOKG= 0.1660539066600000E-26
_ANG=  1.889726124625770    
_ANGSTROM=  1.889726124625770    
_RPAREF=  0.000000000000000    
_RPADISS=  0.000000000000000    
_IGNORE_UNDEF=  2.000000000000000    
_STRICTCHECK=  0.000000000000000    
!SEWARD=  0.000000000000000    
!MULTI=  0.000000000000000    
!DFMULTI=  0.000000000000000    
_SEW_ONEEL=  0.000000000000000    
_CPPDONE=FALSE
_DKROLL_DONE=  0.000000000000000    
_FNUC_DONE=  0.000000000000000    
_FOCKDONE=TRUE
_GRADONE=FALSE
_HESSDONE=FALSE
_INTDONE=TRUE
_SCFDONE=TRUE
_MODUL_BLOCK=FALSE
_MODUL_SLATER=FALSE
_MODUL_MRCC=FALSE
_MODUL_NBO6=FALSE
_MODUL_NECI=FALSE
_MODUL_AIMS=TRUE
_MODUL_HDF5=FALSE
_MODUL_GECCO=FALSE
_ISWINDOWS=FALSE
_MRCC_EXEC=
_FITC_AO_SAVED=FALSE
_FITC_MO_SAVED=FALSE
_LSTYP=SEWARD
_INTYP=INTS
_GEOMTYP=XYZ
_GRADTYP=ALASKA
_DIRECT=FALSE
_DKHO= -1.000000000000000    
_FNUC=  0.000000000000000    
_SYNCM=  0.000000000000000    
_BASIS=MINAO
_ZORIENT=  1.000000000000000    
!ZORIENT=  0.000000000000000    
_CHARGE=  1.000000000000000    
_NELEC=  38.00000000000000    
!SPIN=  0.000000000000000    
_QSDSTEP=  0.000000000000000    
_QSDIRC=  0.000000000000000    
_PROGRAM=RHF-SCF
_CPUSTEP= 0.2000000000000002E-01
_SYSSTEP= 0.9999999999999898E-02
_WALLSTEP= 0.2000000000000000E-01
!DFSCF=  0.000000000000000    
!SCSGRD=  0.000000000000000    
_NCEN=  10.00000000000000    
_CPUTOT= 0.4000000000000000    
_CPUSORT= 0.1000000000000001E-01
_SYSSORT= 0.1000000000000001E-01
_WALLSORT= 0.2999997138977051E-01
_DFTEXFAC=  1.000000000000000    
_DMX=-0.2688535323943333    
_DMY= -1.162050994826192    
_DMZ=-0.8622176826605520E-01
_DMX_SCF=-0.2688535323943333    
_DMY_SCF= -1.162050994826192    
_DMZ_SCF=-0.8622176826605520E-01
_HOMO=  19.10000000000000    
_EHOMO=-0.7292954145332935    
_LUMO=  20.10000000000000    
_ELUMO=-0.1894020743131459    
_ENERGY= -265.3832528984274    
_ENERGY_METHOD=RHF
_ENERGY_BASIS=MINAO
_GEOMETRY_METHOD=
_GEOMETRY_BASIS=
_ENUC=  170.7132020624484    
_GRADEXFAC=  9999.000000000000    
_GRADMETHOD=  1.000000000000000    
_NMRMETHOD=  0.000000000000000    
_NMRMAGNET=  0.000000000000000    
!GRID_FREEZE= -1.000000000000000    
!NEESE_INDEX=  0.000000000000000    
_ITERATIONS=  13.00000000000000    
_LASTNELEC=  38.00000000000000    
_LASTSPIN=  0.000000000000000    
_LASTSYM=  1.000000000000000    
_MPP_PROG=  0.000000000000000    
_MSNSTATES=  0.000000000000000    
_RS2PHASE=  0.000000000000000    
_NPROC_MPP=  1.000000000000000    
_NPROC_SMP=  1.000000000000000    
_NUMSTEP=  0.000000000000000    
_OPTSTEP=  0.000000000000000    
_ORBITAL=  2100.200000000000    
_PI=  3.141592653589793    
_SEIG_MIN= 0.1835472581093298    
_SEWPROP=TRUE
_STATUS=  1.000000000000000    
_SYSTOT= 0.5399999999999999    
_VERSION=  2023001.000000000    
_WALLTOT=  1.260000000000000    
_DATE=27-Jul-23
_LASTORB=0
_OUTPUT=/Users/peterk/current/QtMolpro/malonaldehyde.molpro/run/13.molpro/13.out
_PGROUP=C1
_TIME=17:09:27
_LIBMOL=/usr/local/molpro/molpro_2023.1/lib/
_VIGRDC=  0.000000000000000    
!VIBCNT=  0.000000000000000    
!RGHFCNT=  0.000000000000000    
!SURFREC=  0.000000000000000    
!XSURFREC=  0.000000000000000    
!XPOLYREC=  0.000000000000000    
!ROTREC=  0.000000000000000    
!POLYREC=  0.000000000000000    
!DIPREC=  0.000000000000000    
!DIP4DREC=  0.000000000000000    
!DIPROT=  0.000000000000000    
!DIP4DROT=  0.000000000000000    
!PTREC=  0.000000000000000    
!PT4DREC=  0.000000000000000    
!VSCFREC=  0.000000000000000    
!VCIREC=  0.000000000000000    
!PVCIREC=  0.000000000000000    
!VMP2REC=  0.000000000000000    
!VMCSCFREC=  0.000000000000000    
!VMRCIREC=  0.000000000000000    
!VIBSTATEREC=  0.000000000000000    
!VIBSTATECNT=  0.000000000000000    
!VIBINFO=  0.000000000000000    
!GAREC=  0.000000000000000    
!SCFORB=  21002.00000000000    
!DEFCORE=  5.000000000000000    
!SCORE=  0.000000000000000    
!NEWMOL= -1.000000000000000    
!NEWSYM= -1.000000000000000    
_SLFILES=slscratch
_NGSSTO=  9.000000000000000    
_SIN=SIN
_COS=COS
_TAN=TAN
_ACOS=ACOS
_ASIN=ASIN
_ATAN=ATAN
_COSH=COSH
_SINH=SINH
_TANH=TANH
_ABS=ABS
_MOD=MOD
_ERF=ERF
_REFC=REFC
_ERFC=ERFC
_HYPOT=HYPOT
_J0=J0
_J1=J1
_JN=JN
_GAMMA=GAMMA
_LGAMMA=LGAMMA
_Y0=Y0
_Y1=Y1
_YN=YN
_EXP=EXP
_LOG=LOG
_LOG10=LOG10
_SQRT=SQRT
_INT=INT
_NINT=NINT
_MAX=MAX
_MIN=MIN
_COSMO=  0.000000000000000    
_COSMOIT=  0.000000000000000    
_COSMOES=  0.000000000000000    
_COSMOEDS=  0.000000000000000    
_COSMOEC=  0.000000000000000    
_COSMOEDCORR=  0.000000000000000    
_FEPSI=  1.000000000000000    
_SL_IsMM=  0.000000000000000    
_SL_NSYM=  1.000000000000000    
_SL_System_BitSw=  0.000000000000000    
_SL_Unique_atoms=  0.000000000000000    
_SL_GRAD=  0.000000000000000    
_SL_MAXUPD_Hess=  5.000000000000000    
_SL_N_PRINT_COD=  5.000000000000000    
_SL_PRINT_CODES=  0.000000000000000    
_SL_BasType=  0.000000000000000    
_SL_Energy_Pred=  0.000000000000000    
_SL_New_Coords=  0.000000000000000    
_SL_Total_Nuclea=  0.000000000000000    
_SL_Highest_Mltp=  0.000000000000000    
_SL_Ref_Geom=  0.000000000000000    
_SL_Symmetry_ope=  1.000000000000000    
_SL_agrad=  0.000000000000000    
_SL_GrdMax=  0.000000000000000    
_SL_GrdNorm=  0.000000000000000    
_SL_GrdRMS=  0.000000000000000    
_SL_Hss_Q=  0.000000000000000    
_SL_Hss_X=  0.000000000000000    
_SL_BMxOld=  0.000000000000000    
_SL_KtB=  0.000000000000000    
_SL_TROld=  0.000000000000000    
_SL_No_of_Intern=  0.000000000000000    
_SL_Hess=  0.000000000000000    
_SL_K=  0.000000000000000    
!LATTICE= -1.000000000000000    
!NEWLATTICE=  0.000000000000000    
!LATGRAD_VAR=FALSE
!SEW_LATTICE=  1.000000000000000    
!AIC_ONEEL=  0.000000000000000    
!LOCAL=  0.000000000000000    
!SAVEDOM= -1.000000000000000    
!RESTDOM= -1.000000000000000    
!SAVEDOM_HF= -1.000000000000000    
!RESTDOM_HF= -1.000000000000000    
!HESSREC=  0.000000000000000    
!FREQREC=  0.000000000000000    
!NMODREC=  0.000000000000000    
!GTASKS=  0.000000000000000    
!HTASKS=  0.000000000000000    
!SAVEDOM_EOM= -1.000000000000000    
!RESTDOM_EOM= -1.000000000000000    
!GRADSTATE= -1.000000000000000    
!DEBUG=  0.000000000000000    
!CFIT_CPHF=  0.000000000000000    
!RDOMAUX_CPHF=  0.000000000000000    
!THRAO_CPHF= 0.1000000000000000E-11
!THRMO_CPHF= 0.1000000000000000E-11
!THROV_CPHF= 0.1000000000000000E-11
!THRSW_CPHF= 0.1000000000000000E-11
!THRPROD_CPHF= 0.1000000000000000E-11
!THRAOPR_CPHF= 0.1000000000000000E-11
!CFIT_SCFGRD=  0.000000000000000    
!RDOMAUX_SCFGRD=  0.000000000000000    
!THRAO_SCFGRD= 0.1000000000000000E-11
!THRMO_SCFGRD= 0.1000000000000000E-11
!THROV_SCFGRD= 0.1000000000000000E-11
!THRSW_SCFGRD= 0.1000000000000000E-11
!THRPROD_SCFGRD= 0.1000000000000000E-11
!THRAOPR_SCFGRD= 0.1000000000000000E-11
!LOCFIT_SCF=  0.000000000000000    
!LOCFIT_MP2=  0.000000000000000    
_RIDOM=  0.000000000000000    
!CC2_METHOD=  0.000000000000000    
_BASIS2006=FALSE
_SVDDEL= -1.000000000000000    
_SVDDELA= -1.000000000000000    
_SVDDELP= -1.000000000000000    
_SVDDELF= -1.000000000000000    
_SVDDELS= -1.000000000000000    
_SVDDEL_ABS= -1.000000000000000    
_SVDDELA_ABS= -1.000000000000000    
_SVDDELP_ABS= -1.000000000000000    
_SVDDELF_ABS= -1.000000000000000    
_SVDDELS_ABS= -1.000000000000000    
_MAXBASIS=  0.000000000000000    
!OPT_CONICAL=  0.000000000000000    
!CLEARSP_JGRID=  0.000000000000000    
_GRDHYBR=  0.000000000000000    
_STATEGRAD=  1.000000000000000    
_4EXT_NDISKS=  1.000000000000000    
!EMBEDFLAG=  1.000000000000000    
!EMBED=FALSE
!EMBED_F12=FALSE
!EMBEDNUC=  0.000000000000000    
_EMBEDENERGY=  0.000000000000000    
!EMBED_DFC=FALSE
!NUM_VOIDS=  0.000000000000000    
_IBODY=  0.000000000000000    
_EMBE_CORR=  0.000000000000000    
!EMBED_PROJ=FALSE
!EMB_PROJ_ZMU=  1000000.000000000    
!CORRECTION_HF=  0.000000000000000    
!EMBED_AORB=  0.000000000000000    
!EMBED_NACORR=  0.000000000000000    
!EMBED_MP2=FALSE
!EMBED_TRUNC_PERTURBATION=FALSE
!EMBED_FROZEN=  0.000000000000000    
!EMBED_ACTIVE=  0.000000000000000    
_CHANGE_BASIS=FALSE
_RESTORE_BASIS=FALSE
_FIX_EMBED_GUESS=FALSE
_EMBED_SCF=FALSE
_NEOBAS=FALSE
_NEOOVE=FALSE
_PRINEO=FALSE
_HUZINAGA_T=FALSE
_HUZINAGA_F=FALSE
_HUZINAGA=FALSE
_HUZINAGA_CORRECT=FALSE
!FASTLATGRAD=  1.000000000000000    
!FASTVLAMBDA= -1.000000000000000    
!IFORCE= -1.000000000000000    
!USESYM= -1.000000000000000    
_SINDEX=  0.000000000000000    
_AVDOM_OSV=  0.000000000000000    
_AVDOM_PNO=  0.000000000000000    
_AVDOM_PNOCC=  0.000000000000000    
_AVDOM_TNO=  0.000000000000000    
_AVDOM_TNOIT=  0.000000000000000    
_AVDOM_PAO=  0.000000000000000    
_AVDOM_LMO=  0.000000000000000    
_CC2OSV_FLAG=  0.000000000000000    
_EOMCCSD_CONV=FALSE
_TMADC2_FLAG=FALSE
_PROPADC2_FLAG=FALSE
_LEN_VirQ=  0.000000000000000    
_GRDCC2LR_FLAG=FALSE
_GRDADC2_FLAG=FALSE
_RO_VGLOBAL=  0.000000000000000    
_OPT=FALSE
_FREQ=FALSE
_HESS=FALSE
_CMRCC_callName=EMPTY
_CMRCC_callCount=  0.000000000000000    
_GECCO_CIROOT=  1.000000000000000    
_SYM_CATION=  1.000000000000000    
_MON_A=FALSE
_MON_B=FALSE
_MAXGEOM=  100.0000000000000    
!MAXGEOM=  100.0000000000000    
GX1=  1.368500000000000    
GY1= 0.8902000000000000    
GZ1= 0.2200000000000000E-02
GX2= -1.368500000000000    
GY2= 0.8902000000000000    
GZ2= 0.2200000000000000E-02
GX3=-0.1000000000000000E-03
GY3= -1.114900000000000    
GZ3= 0.6900000000000000E-02
GX4=  1.285200000000000    
GY4=-0.3328000000000000    
GZ4=-0.5700000000000000E-02
GX5= -1.285200000000000    
GY5=-0.3328000000000000    
GZ5=-0.5600000000000000E-02
GX6=  0.000000000000000    
GY6= -1.743400000000000    
GZ6= 0.9028000000000000    
GX7=-0.1000000000000000E-03
GY7= -1.765100000000000    
GZ7=-0.8734999999999997    
GX8=  2.200800000000000    
GY8=-0.9494000000000000    
GZ8=-0.1780000000000000E-01
GX9= -2.200800000000000    
GY9=-0.9493000000000000    
GZ9=-0.1760000000000000E-01
GX10=-0.9450000000000000E-01
GY10=  1.420580000000000    
GZ10=-0.7722999999999997E-01
[Atoms] Angs
O     1    8         1.3685000000        0.8902000000        0.0022000000
O     2    8        -1.3685000000        0.8902000000        0.0022000000
C     3    6        -0.0001000000       -1.1149000000        0.0069000000
C     4    6         1.2852000000       -0.3328000000       -0.0057000000
C     5    6        -1.2852000000       -0.3328000000       -0.0056000000
H     6    1         0.0000000000       -1.7434000000        0.9028000000
H     7    1        -0.0001000000       -1.7651000000       -0.8735000000
H     8    1         2.2008000000       -0.9494000000       -0.0178000000
H     9    1        -2.2008000000       -0.9493000000       -0.0176000000
H    10    1        -0.0945000000        1.4205800000       -0.0772300000
[GTO]
   1 0
 s   10  1.00
  0.1533000000D+05  0.5079996682D-03
  0.2299000000D+04  0.3928997434D-02
  0.5224000000D+03  0.2024298678D-01
  0.1473000000D+03  0.7918094828D-01
  0.4755000000D+02  0.2306868493D+00
  0.1676000000D+02  0.4331177171D+00
  0.6207000000D+01  0.3502597712D+00
  0.1752000000D+01  0.4272797209D-01
  0.6882000000D+00 -0.8153994674D-02
  0.2384000000D+00  0.2380998445D-02
 s   10  1.00
  0.1533000000D+05 -0.1150000604D-03
  0.2299000000D+04 -0.8950004697D-03
  0.5224000000D+03 -0.4636002433D-02
  0.1473000000D+03 -0.1872400983D-01
  0.4755000000D+02 -0.5846303068D-01
  0.1676000000D+02 -0.1364630716D+00
  0.6207000000D+01 -0.1757400922D+00
  0.1752000000D+01  0.1609340845D+00
  0.6882000000D+00  0.6034183167D+00
  0.2384000000D+00  0.3787651988D+00
 p    5  1.00
  0.3446000000D+02  0.1592799074D-01
  0.7749000000D+01  0.9973994203D-01
  0.2280000000D+01  0.3104918195D+00
  0.7156000000D+00  0.4910257146D+00
  0.2140000000D+00  0.3363368045D+00
  
   2 0
 s   10  1.00
  0.1533000000D+05  0.5079996682D-03
  0.2299000000D+04  0.3928997434D-02
  0.5224000000D+03  0.2024298678D-01
  0.1473000000D+03  0.7918094828D-01
  0.4755000000D+02  0.2306868493D+00
  0.1676000000D+02  0.4331177171D+00
  0.6207000000D+01  0.3502597712D+00
  0.1752000000D+01  0.4272797209D-01
  0.6882000000D+00 -0.8153994674D-02
  0.2384000000D+00  0.2380998445D-02
 s   10  1.00
  0.1533000000D+05 -0.1150000604D-03
  0.2299000000D+04 -0.8950004697D-03
  0.5224000000D+03 -0.4636002433D-02
  0.1473000000D+03 -0.1872400983D-01
  0.4755000000D+02 -0.5846303068D-01
  0.1676000000D+02 -0.1364630716D+00
  0.6207000000D+01 -0.1757400922D+00
  0.1752000000D+01  0.1609340845D+00
  0.6882000000D+00  0.6034183167D+00
  0.2384000000D+00  0.3787651988D+00
 p    5  1.00
  0.3446000000D+02  0.1592799074D-01
  0.7749000000D+01  0.9973994203D-01
  0.2280000000D+01  0.3104918195D+00
  0.7156000000D+00  0.4910257146D+00
  0.2140000000D+00  0.3363368045D+00
  
   3 0
 s   10  1.00
  0.8236000000D+04  0.5309998617D-03
  0.1235000000D+04  0.4107998930D-02
  0.2808000000D+03  0.2108699451D-01
  0.7927000000D+02  0.8185297868D-01
  0.2559000000D+02  0.2348169388D+00
  0.8997000000D+01  0.4344008869D+00
  0.3319000000D+01  0.3461289099D+00
  0.9059000000D+00  0.3937798974D-01
  0.3643000000D+00 -0.8982997660D-02
  0.1285000000D+00  0.2384999379D-02
 s   10  1.00
  0.8236000000D+04 -0.1129999414D-03
  0.1235000000D+04 -0.8779995449D-03
  0.2808000000D+03 -0.4539997647D-02
  0.7927000000D+02 -0.1813299060D-01
  0.2559000000D+02 -0.5575997110D-01
  0.8997000000D+01 -0.1268949342D+00
  0.3319000000D+01 -0.1703519117D+00
  0.9059000000D+00  0.1403819272D+00
  0.3643000000D+00  0.5986836897D+00
  0.1285000000D+00  0.3953887950D+00
 p    5  1.00
  0.1871000000D+02  0.1403099838D-01
  0.4133000000D+01  0.8686598995D-01
  0.1200000000D+01  0.2902159664D+00
  0.3827000000D+00  0.5010079421D+00
  0.1209000000D+00  0.3434059603D+00
  
   4 0
 s   10  1.00
  0.8236000000D+04  0.5309998617D-03
  0.1235000000D+04  0.4107998930D-02
  0.2808000000D+03  0.2108699451D-01
  0.7927000000D+02  0.8185297868D-01
  0.2559000000D+02  0.2348169388D+00
  0.8997000000D+01  0.4344008869D+00
  0.3319000000D+01  0.3461289099D+00
  0.9059000000D+00  0.3937798974D-01
  0.3643000000D+00 -0.8982997660D-02
  0.1285000000D+00  0.2384999379D-02
 s   10  1.00
  0.8236000000D+04 -0.1129999414D-03
  0.1235000000D+04 -0.8779995449D-03
  0.2808000000D+03 -0.4539997647D-02
  0.7927000000D+02 -0.1813299060D-01
  0.2559000000D+02 -0.5575997110D-01
  0.8997000000D+01 -0.1268949342D+00
  0.3319000000D+01 -0.1703519117D+00
  0.9059000000D+00  0.1403819272D+00
  0.3643000000D+00  0.5986836897D+00
  0.1285000000D+00  0.3953887950D+00
 p    5  1.00
  0.1871000000D+02  0.1403099838D-01
  0.4133000000D+01  0.8686598995D-01
  0.1200000000D+01  0.2902159664D+00
  0.3827000000D+00  0.5010079421D+00
  0.1209000000D+00  0.3434059603D+00
  
   5 0
 s   10  1.00
  0.8236000000D+04  0.5309998617D-03
  0.1235000000D+04  0.4107998930D-02
  0.2808000000D+03  0.2108699451D-01
  0.7927000000D+02  0.8185297868D-01
  0.2559000000D+02  0.2348169388D+00
  0.8997000000D+01  0.4344008869D+00
  0.3319000000D+01  0.3461289099D+00
  0.9059000000D+00  0.3937798974D-01
  0.3643000000D+00 -0.8982997660D-02
  0.1285000000D+00  0.2384999379D-02
 s   10  1.00
  0.8236000000D+04 -0.1129999414D-03
  0.1235000000D+04 -0.8779995449D-03
  0.2808000000D+03 -0.4539997647D-02
  0.7927000000D+02 -0.1813299060D-01
  0.2559000000D+02 -0.5575997110D-01
  0.8997000000D+01 -0.1268949342D+00
  0.3319000000D+01 -0.1703519117D+00
  0.9059000000D+00  0.1403819272D+00
  0.3643000000D+00  0.5986836897D+00
  0.1285000000D+00  0.3953887950D+00
 p    5  1.00
  0.1871000000D+02  0.1403099838D-01
  0.4133000000D+01  0.8686598995D-01
  0.1200000000D+01  0.2902159664D+00
  0.3827000000D+00  0.5010079421D+00
  0.1209000000D+00  0.3434059603D+00
  
   6 0
 s    5  1.00
  0.3387000000D+02  0.6067999217D-02
  0.5095000000D+01  0.4530799416D-01
  0.1159000000D+01  0.2028219738D+00
  0.3258000000D+00  0.5039029350D+00
  0.1027000000D+00  0.3834209505D+00
  
   7 0
 s    5  1.00
  0.3387000000D+02  0.6067999217D-02
  0.5095000000D+01  0.4530799416D-01
  0.1159000000D+01  0.2028219738D+00
  0.3258000000D+00  0.5039029350D+00
  0.1027000000D+00  0.3834209505D+00
  
   8 0
 s    5  1.00
  0.3387000000D+02  0.6067999217D-02
  0.5095000000D+01  0.4530799416D-01
  0.1159000000D+01  0.2028219738D+00
  0.3258000000D+00  0.5039029350D+00
  0.1027000000D+00  0.3834209505D+00
  
   9 0
 s    5  1.00
  0.3387000000D+02  0.6067999217D-02
  0.5095000000D+01  0.4530799416D-01
  0.1159000000D+01  0.2028219738D+00
  0.3258000000D+00  0.5039029350D+00
  0.1027000000D+00  0.3834209505D+00
  
  10 0
 s    5  1.00
  0.3387000000D+02  0.6067999217D-02
  0.5095000000D+01  0.4530799416D-01
  0.1159000000D+01  0.2028219738D+00
  0.3258000000D+00  0.5039029350D+00
  0.1027000000D+00  0.3834209505D+00


[MO]
 Sym=      1.1
 Ene=     -20.9636
 Spin= Alpha
 Occup=    2.000000
1 -0.000172015509000
2 -0.000004665727746
3 0.000049076590654
4 -0.000017627077509
5 -0.000000000974170
6 1.00006451733801
7 0.001043537610260
8 0.000693822730312
9 -0.001869642878270
10 -0.000034057325014
11 0.000012110766820
12 0.000028186341527
13 -0.000009283439222
14 -0.000052527195811
15 -0.000001671038470
16 0.000005447127705
17 0.000004904699676
18 0.000032275855635
19 -0.000041758642227
20 0.000000181451508
21 -0.000176697605758
22 -0.000868096498905
23 -0.000128142798349
24 -0.000385074716594
25 0.000000989565713
26 -0.000011110475188
27 -0.000012202543588
28 -0.000030886718751
29 -0.000086743169288
30 0.000007543315853
 Sym=      2.1
 Ene=     -20.9166
 Spin= Alpha
 Occup=    2.000000
1 1.00006995692478
2 0.001099735956642
3 -0.000528897415403
4 -0.001990365314137
5 -0.000025340515501
6 0.000178313711052
7 -0.000005332243607
8 -0.000043777491170
9 -0.000015207513758
10 0.000000036703461
11 0.000008853903975
12 0.000012782870277
13 -0.000001667473234
14 -0.000051695728379
15 -0.000001302460778
16 -0.000186234709930
17 -0.000917341597217
18 0.000073855171527
19 -0.000426499926214
20 -0.000000934034299
21 0.000004913628814
22 0.000004171953562
23 -0.000029003898613
24 -0.000034862049871
25 0.000000151375673
26 -0.000010696934909
27 -0.000011906507900
28 -0.000075076794324
29 -0.000027831468613
30 0.000006506120799
 Sym=      3.1
 Ene=     -11.8438
 Spin= Alpha
 Occup=    2.000000
1 0.000013285316081
2 0.000066463458148
3 0.000005471489791
4 0.000015780887588
5 -0.000004537119973
6 -0.000211739547768
7 0.000118286003163
8 0.000130364317275
9 -0.000582020906095
10 -0.000010699994401
11 0.001795945709232
12 0.000614711995811
13 -0.000623020105157
14 0.000117694923416
15 -0.000010273263587
16 -0.000354094170623
17 -0.000074278259733
18 0.000163810644581
19 -0.000132184724532
20 0.000001222829128
21 0.99983415821683
22 0.000152570842326
23 0.000183704531865
24 0.001289925683370
25 0.000007228705431
26 -0.000214597723877
27 -0.000218156010122
28 -0.000013061121965
29 0.000714101123756
30 -0.000370206436707
 Sym=      4.1
 Ene=     -11.8117
 Spin= Alpha
 Occup=    2.000000
1 -0.000210844090098
2 0.000132430866128
3 -0.000085447086313
4 -0.000619722507521
5 -0.000008722182859
6 0.000014522144328
7 0.000075808759691
8 -0.000000180476627
9 0.000022749405947
10 -0.000005370635557
11 0.002167279294877
12 0.000536462234366
13 0.000554671447671
14 0.000088821620373
15 -0.000009106796039
16 0.99983894066142
17 0.000267906427054
18 -0.000283804756550
19 0.001158384037575
20 0.000007816304332
21 0.000343845198802
22 -0.000078368912819
23 -0.000168207805722
24 -0.000123515968367
25 0.000001099888558
26 -0.000223801543670
27 -0.000226899552374
28 0.000691681382780
29 -0.000015675823169
30 -0.000327666300607
 Sym=      5.1
 Ene=     -11.6783
 Spin= Alpha
 Occup=    2.000000
1 -0.000000819625049
2 -0.000050294494882
3 0.000114721709635
4 0.000058569882186
5 -0.000003653944887
6 -0.000001772429514
7 -0.000051832893530
8 -0.000100930302391
9 0.000067439137361
10 -0.000004039587581
11 0.99999814856284
12 0.002168894718146
13 -0.000102340970491
14 0.000326015400830
15 -0.000013896985263
16 -0.002178650393639
17 -0.000106742891584
18 -0.000104840275821
19 -0.000146154610823
20 0.000002131571927
21 -0.001807190263623
22 -0.000170867875647
23 0.000065499474318
24 -0.000097680666577
25 0.000000859156675
26 -0.000038297263625
27 -0.000043891625043
28 -0.000238274527385
29 -0.000244881473950
30 -0.000154377351088
 Sym=      6.1
 Ene=      -1.7806
 Spin= Alpha
 Occup=    2.000000
1 -0.005144414532652
2 0.14994947713872
3 -0.016710521146676
4 -0.040521623782606
5 -0.000900461821467
6 -0.023213639703459
7 0.71538195459444
8 0.076211818646594
9 -0.19224492873356
10 -0.004313519007029
11 -0.006690254752132
12 0.050989495203958
13 -0.016930201862279
14 -0.002597770629537
15 -0.000546649784924
16 -0.011794420715217
17 0.053407806960839
18 -0.001058045162038
19 0.024114150940136
20 0.000133628549590
21 -0.050702336827207
22 0.23446384421938
23 0.009987963286672
24 0.15683810474459
25 0.000396764345035
26 -0.000328603640543
27 -0.000233539180443
28 0.000319233365082
29 0.012061845176650
30 0.009623908707167
 Sym=      7.1
 Ene=      -1.7387
 Spin= Alpha
 Occup=    2.000000
1 -0.023761560455974
2 0.71281075704967
3 -0.062989749339737
4 -0.19726122273179
5 -0.003220470495599
6 0.005598533363338
7 -0.17516033074447
8 -0.012974721189154
9 0.049216690847571
10 0.000734406648466
11 -0.004719130284807
12 0.037504435859998
13 0.028600152837471
14 0.000228170091620
15 -0.000381027976199
16 -0.050850992304051
17 0.24504911701626
18 -0.011803995125969
19 0.16501449357464
20 0.000522630839120
21 0.011132936797018
22 -0.053654920433562
23 -0.001988596407530
24 -0.049203149923573
25 -0.000088260624894
26 0.000183783171030
27 0.000257853313040
28 0.014059859223746
29 -0.005185151916075
30 -0.000818231456830
 Sym=      8.1
 Ene=      -1.3830
 Spin= Alpha
 Occup=    2.000000
1 0.000495740945888
2 -0.19793887511702
3 -0.003532790741303
4 -0.006916906607655
5 0.000526890592188
6 -0.000311484172010
7 -0.21078667555661
8 0.001678703980602
9 -0.021442548476392
10 0.000921054284250
11 -0.049088571693353
12 0.55907538013809
13 -0.008880627079499
14 0.054891640269813
15 -0.001960097995349
16 -0.019201379203660
17 0.19028052881590
18 -0.10673622505852
19 -0.13011472812945
20 0.000047905799684
21 -0.021067116228146
22 0.23207739091574
23 0.11598911810398
24 -0.13927067914247
25 -0.000049360873515
26 0.050871911898143
27 0.050666075535780
28 0.017866329954166
29 0.023314445392275
30 -0.041316027531204
 Sym=      9.1
 Ene=      -1.1832
 Spin= Alpha
 Occup=    2.000000
1 -0.005834591230622
2 -0.26894719745216
3 -0.001623705143668
4 -0.099640806624736
5 0.000519132467604
6 0.008743026512832
7 0.30694029138572
8 0.050847338640176
9 0.17976120863612
10 -0.001870134037526
11 -0.003159151075121
12 0.055886446702473
13 0.25912537642250
14 -0.002286321434571
15 -0.000046659108624
16 -0.021506876262956
17 0.38713061249488
18 -0.045904789202329
19 -0.17903793874111
20 -0.000725232674418
21 0.022879642854932
22 -0.46787301141657
23 0.016413371698086
24 0.16387408753612
25 0.000995006522109
26 0.011604505845898
27 0.011681616295560
28 0.086935231758453
29 -0.11493277186705
30 0.035166899066668
 Sym=     10.1
 Ene=      -1.1075
 Spin= Alpha
 Occup=    2.000000
1 0.008786237944424
2 0.21153267960923
3 -0.19508259416611
4 0.23567923812004
5 -0.001809426491869
6 0.008976313755538
7 0.15628335607867
8 0.26832855916837
9 0.27072327829645
10 -0.004073918234387
11 -0.013258677556397
12 0.17661506446035
13 -0.069230072444110
14 -0.019855197552260
15 0.000415655701755
16 0.013387621846497
17 -0.35114894430783
18 -0.19095608184182
19 0.048669557676065
20 0.001039239028332
21 0.008520933228266
22 -0.23132945176776
23 0.26348881787323
24 -0.046288378843498
25 0.000605025785873
26 0.051121597364083
27 0.051189899882368
28 -0.12618063690425
29 -0.10154317456655
30 0.18043463581391
 Sym=     11.1
 Ene=      -1.0168
 Spin= Alpha
 Occup=    2.000000
1 -0.010636192057014
2 -0.22557244764146
3 -0.18060692237164
4 -0.17787756844858
5 -0.000694721500726
6 -0.017580335502996
7 -0.32795423989645
8 0.30899276825355
9 -0.33598344607957
10 0.000512638253900
11 -0.003493270205998
12 -0.21874936438371
13 0.003134348857134
14 0.30975069632841
15 -0.003487845043848
16 -0.009707507756430
17 0.10287733624714
18 -0.15836753882498
19 0.070178844222349
20 -0.000294721813402
21 -0.013626988624108
22 0.092961381406043
23 0.27276085973370
24 0.19419766618494
25 0.001210542306733
26 -0.13585743491978
27 -0.13716440391187
28 -0.008596144668370
29 -0.060550170231161
30 -0.061987325572655
 Sym=     12.1
 Ene=      -0.9705
 Spin= Alpha
 Occup=    2.000000
1 -0.004964199988979
2 -0.069408165103919
3 0.39389817802711
4 -0.10964042359596
5 -0.006224744214096
6 0.006545159839229
7 0.066595955029314
8 0.35765602719823
9 0.15778197650364
10 -0.001558949068832
11 0.000734182233646
12 -0.039898029123760
13 -0.29839663344641
14 -0.011693401842260
15 -0.005056792887070
16 0.000322918041276
17 0.044128219347516
18 0.46472056526737
19 -0.013664418138885
20 -0.007361036295809
21 0.001619580958156
22 0.052843947790167
23 0.34376257804868
24 -0.096445212398697
25 0.000661224500674
26 -0.013290501188029
27 -0.009310461406610
28 0.14810602291701
29 -0.059528745194721
30 0.041912635767935
 Sym=     13.1
 Ene=      -0.9574
 Spin= Alpha
 Occup=    2.000000
1 -0.020713404557039
2 -0.34897342381160
3 -0.20660733103405
4 -0.38166889216932
5 -0.014471398266893
6 0.019759907079236
7 0.24721986496581
8 -0.036837918556955
9 0.49091097093907
10 -0.030301705799727
11 -0.002113616874226
12 -0.14043139461067
13 -0.083146170883335
14 0.17583694267115
15 -0.034859683861428
16 -0.011668949829057
17 0.12174078709462
18 -0.10829955355290
19 0.19297813097234
20 -0.012346255808796
21 0.011624655646721
22 0.10327489846259
23 -0.10788390255664
24 -0.39822239175545
25 -0.024461298424656
26 -0.11079736854376
27 -0.085525352471974
28 -0.015904377422661
29 0.16312010082367
30 0.080590637219107
 Sym=     14.1
 Ene=      -0.9439
 Spin= Alpha
 Occup=    2.000000
1 -0.003243694589826
2 -0.042954299873898
3 0.000809929060232
4 -0.076204132151328
5 0.20329501750418
6 0.002057563400710
7 0.034687150085768
8 -0.016165600929712
9 0.031685584458155
10 0.34803054438020
11 0.000061043814135
12 0.012305204309059
13 -0.020147192736054
14 -0.002054930700429
15 0.47674954418213
16 -0.001831149602910
17 -0.008053151295248
18 -0.009580789842261
19 0.055156083966845
20 0.19069468315301
21 0.000757239582738
22 -0.011769807393342
23 0.009264492089121
24 -0.015240073516120
25 0.27353452957920
26 0.20131600824868
27 -0.18907170714696
28 -0.019632311221926
29 -0.006953135744105
30 -0.020592400480307
 Sym=     15.1
 Ene=      -0.9210
 Spin= Alpha
 Occup=    2.000000
1 0.018315038850407
2 0.19828146315360
3 -0.12669249271695
4 0.48635485964383
5 0.018734210655191
6 -0.001735513171457
7 -0.086956544002915
8 0.18494706781136
9 0.10131519034222
10 0.028690606849907
11 -0.004545378819234
12 -0.21491353254466
13 0.099959106070387
14 0.23895230726470
15 0.053338727351798
16 0.010767406947050
17 0.16764096932670
18 0.061595268630831
19 -0.43414951051633
20 0.016351873200247
21 0.002557008218873
22 0.18462361070283
23 -0.12093063689485
24 -0.19388408631865
25 0.023606883090735
26 -0.12910111975582
27 -0.17869767455135
28 0.20826399158479
29 0.18972137748085
30 0.21470990830560
 Sym=     16.1
 Ene=      -0.8635
 Spin= Alpha
 Occup=    2.000000
1 0.000347049574829
2 0.003308063362758
3 -0.003700385691432
4 0.010325749770799
5 -0.36236879690771
6 0.000601917269952
7 0.011620116878644
8 -0.010931382117522
9 0.005701573844344
10 0.62560048742898
11 -0.000200371942199
12 -0.001575197929935
13 -0.001144716447320
14 0.009059752745817
15 -0.21645605905919
16 0.000272353315358
17 0.003026748462467
18 -0.007148204692650
19 -0.002732420329920
20 -0.29406552996419
21 0.000096519030028
22 -0.001490731556115
23 0.001637369509443
24 -0.007562281688003
25 0.36942964272574
26 -0.11565317263908
27 0.10645510768328
28 0.000763092442410
29 -0.001163927384104
30 -0.006121382549912
 Sym=     17.1
 Ene=      -0.8191
 Spin= Alpha
 Occup=    2.000000
1 -0.009624883427713
2 -0.15975432133796
3 -0.36056160864840
4 -0.18975400990399
5 -0.21302811297658
6 -0.009809657388429
7 -0.16800080494393
8 0.49801026539514
9 -0.17071771080147
10 -0.080678233124239
11 0.000222041562374
12 -0.10295080932698
13 0.055120282496556
14 -0.43968318620427
15 0.14839559007956
16 -0.002886032269691
17 0.012196725026507
18 0.12917167220108
19 0.090344015423918
20 -0.13120756894380
21 -0.003211826311603
22 0.000329088712473
23 -0.25477283668177
24 0.061157656001010
25 -0.024369308718228
26 0.22493714486218
27 0.059376588133258
28 0.069610950625304
29 0.15473073868824
30 0.18951316568501
 Sym=     18.1
 Ene=      -0.8148
 Spin= Alpha
 Occup=    2.000000
1 -0.002923084620233
2 -0.048542745611328
3 -0.13557789573288
4 -0.065542902274051
5 0.57018467988157
6 -0.002993605451831
7 -0.053219145632288
8 0.19544438611006
9 -0.055878427812724
10 0.26916548701704