[Molden Format]
[Molpro variables]
_NUMVAR=  1095.000000000000    
_AVOGAD= 0.6022140760000000E+24
_BOLTZ= 0.1380649000000000E-22
_CLIGHTSI=  299792458.0000000    
_JOULE= 0.4359744722207100E-17
_JPCAL=  4.184000000000000    
_PLANCK= 0.6626070150000000E-33
_BOHR= 0.5291772109030000E-10
_ECHARG= 0.1602176634000000E-18
_ENULL= 0.8854187812800001E-11
_MU= 0.1660539066600000E-26
_EMASS= 0.9109383701500001E-30
_AMU2AU=  1822.888486217313    
_CLIGHT=  29979245800.00000    
_EV= 0.3674932217565494E-01
_KJOULE= 0.3808798847133432E-03
_KJOULE/MOL= 0.3808798847133432E-03
_CM= 0.4556335252912009E-05
_CM-1= 0.4556335252912009E-05
_DEB2SI= 0.3335640951981520E-29
_KCAL= 0.1593601437640628E-02
_KCAL/MOL= 0.1593601437640628E-02
_KELVIN= 0.3166811563455608E-05
_HERTZ= 0.1519829846057038E-15
_HZ= 0.1519829846057038E-15
_TOA= 0.5291772109030000    
_TOANG= 0.5291772109030000    
_TORAD= 0.1745329251994330E-01
_TOCM=  219474.6313631965    
_TODEBYE=  2.541746473194078    
_TOE= 0.4803204712570263E-09
_TOEV=  27.21138624598803    
_TOHERTZ=  6579683920501656.    
_TOHZ=  6579683920501656.    
_TOK=  315775.0248040668    
_TOKCAL=  627.5094740630558    
_TOKELVIN=  315775.0248040668    
_TOKJ=  2625.499639479825    
_TOKJOULE=  2625.499639479825    
_TOKG= 0.1660539066600000E-26
_ANG=  1.889726124625770    
_ANGSTROM=  1.889726124625770    
_RPAREF=  0.000000000000000    
_RPADISS=  0.000000000000000    
_IGNORE_UNDEF=  2.000000000000000    
_STRICTCHECK=  0.000000000000000    
!SEWARD=  0.000000000000000    
!MULTI=  0.000000000000000    
!DFMULTI=  0.000000000000000    
_SEW_ONEEL=  0.000000000000000    
_CPPDONE=FALSE
_DKROLL_DONE=  0.000000000000000    
_FNUC_DONE=  0.000000000000000    
_FOCKDONE=TRUE
_GRADONE=FALSE
_HESSDONE=TRUE
_INTDONE=TRUE
_SCFDONE=TRUE
_MODUL_BLOCK=FALSE
_MODUL_SLATER=FALSE
_MODUL_MRCC=FALSE
_MODUL_NBO6=FALSE
_MODUL_NECI=FALSE
_MODUL_AIMS=TRUE
_MODUL_HDF5=FALSE
_MODUL_GECCO=FALSE
_ISWINDOWS=FALSE
_MRCC_EXEC=
_FITC_AO_SAVED=FALSE
_FITC_MO_SAVED=FALSE
_LSTYP=SEWARD
_INTYP=INTS
_GEOMTYP=XYZ
_GRADTYP=ALASKA
_DIRECT=FALSE
_DKHO= -1.000000000000000    
_FNUC=  0.000000000000000    
_SYNCM=  0.000000000000000    
_BASIS=MINAO
_ZORIENT=  1.000000000000000    
_CHARGE=  1.000000000000000    
_NELEC=  38.00000000000000    
!SPIN=  0.000000000000000    
_OPTCONV= 0.1793092444238994E-02
_QSDSTEP=  0.000000000000000    
_QSDIRC=  0.000000000000000    
_PROGRAM=FREQ
_CPUSTEP=  11.39000000000000    
_SYSSTEP= 0.1200000000000001    
_WALLSTEP=  11.56000000000000    
!DFSCF=  0.000000000000000    
!SCSGRD=  0.000000000000000    
_NCEN=  10.00000000000000    
_CPUTOT=  37.98000000000000    
_DFTEXFAC=  1.000000000000000    
_DMX= 0.7379874721091501E-02
_DMY= -1.023312679154181    
_DMZ= 0.1208072439063840E-01
_DMX_SCF= 0.7379874721091501E-02
_DMY_SCF= -1.023312679154181    
_DMZ_SCF= 0.1208072439063840E-01
_FREQUENCIES= 0.3912304386904121E-04
_HOMO=  19.10000000000000    
_EHOMO=-0.7147435407781834    
_LUMO=  20.10000000000000    
_ELUMO=-0.1919721938457880    
_ENERGY= -265.4720204216101    
_ENERGY_METHOD=RHF
_ENERGY_BASIS=MINAO
_GEOMETRY_METHOD=RHF
_GEOMETRY_BASIS=MINAO
_ENUC=  165.7197458433554    
_GRADENERG= -265.4720202764267    
_GRADEXFAC=  9999.000000000000    
_GRADMETHOD=  1.000000000000000    
_NMRMETHOD=  0.000000000000000    
_NMRMAGNET=  0.000000000000000    
_VIRIAL= 0.3591410950235552E-03
!GRID_FREEZE= -1.000000000000000    
!NEESE_INDEX=  0.000000000000000    
_ITERATIONS=  10.00000000000000    
_LASTNELEC=  38.00000000000000    
_LASTSPIN=  0.000000000000000    
_LASTSYM=  1.000000000000000    
_MPP_PROG=  0.000000000000000    
_MSNSTATES=  0.000000000000000    
_RS2PHASE=  0.000000000000000    
_NPROC_MPP=  1.000000000000000    
_NPROC_SMP=  1.000000000000000    
_NUMSTEP=  0.000000000000000    
_OPTCONVMX= 0.8725097542139412E-03
_OPTCONVRMS= 0.3660134625021194E-03
_OPTGRAD= 0.3812812528819964E-03
_OPTGRADMX= 0.2695183504031864E-03
_OPTGRADRMS= 0.7782870983749744E-04
!GMAXLAST= 0.2695183504031864E-03
!DMAXLAST= 0.8725097542139412E-03
!DELAST= 0.2294048044859665E-06
_OPTSTEP=  25.00000000000000    
_ORBITAL=  2100.200000000000    
_PI=  3.141592653589793    
_SEIG_MIN= 0.2312819059607926    
_SEWPROP=TRUE
_STATUS=  1.000000000000000    
_SYSTOT=  1.530000000000000    
_VERSION=  2023001.000000000    
_WALLTOT=  40.29000000000000    
_ZPE= 0.7216652295558121E-01
_DATE=27-Jul-23
_LASTORB=0
_OUTPUT=/Users/peterk/current/QtMolpro/malonaldehyde.molpro/run/13.molpro/13.out
_PGROUP=C1
_TIME=17:09:27
_LIBMOL=/usr/local/molpro/molpro_2023.1/lib/
_VIGRDC=  0.000000000000000    
!VIBCNT=  0.000000000000000    
!RGHFCNT=  0.000000000000000    
!SURFREC=  0.000000000000000    
!XSURFREC=  0.000000000000000    
!XPOLYREC=  0.000000000000000    
!ROTREC=  0.000000000000000    
!POLYREC=  0.000000000000000    
!DIPREC=  0.000000000000000    
!DIP4DREC=  0.000000000000000    
!DIPROT=  0.000000000000000    
!DIP4DROT=  0.000000000000000    
!PTREC=  0.000000000000000    
!PT4DREC=  0.000000000000000    
!VSCFREC=  0.000000000000000    
!VCIREC=  0.000000000000000    
!PVCIREC=  0.000000000000000    
!VMP2REC=  0.000000000000000    
!VMCSCFREC=  0.000000000000000    
!VMRCIREC=  0.000000000000000    
!VIBSTATEREC=  0.000000000000000    
!VIBSTATECNT=  0.000000000000000    
!VIBINFO=  0.000000000000000    
!GAREC=  0.000000000000000    
!SCFORB=  21002.00000000000    
!DEFCORE=  5.000000000000000    
!SCORE=  0.000000000000000    
!NEWMOL=  0.000000000000000    
!NEWSYM=  0.000000000000000    
_SLFILES=slscratch
_NGSSTO=  9.000000000000000    
_SIN=SIN
_COS=COS
_TAN=TAN
_ACOS=ACOS
_ASIN=ASIN
_ATAN=ATAN
_COSH=COSH
_SINH=SINH
_TANH=TANH
_ABS=ABS
_MOD=MOD
_ERF=ERF
_REFC=REFC
_ERFC=ERFC
_HYPOT=HYPOT
_J0=J0
_J1=J1
_JN=JN
_GAMMA=GAMMA
_LGAMMA=LGAMMA
_Y0=Y0
_Y1=Y1
_YN=YN
_EXP=EXP
_LOG=LOG
_LOG10=LOG10
_SQRT=SQRT
_INT=INT
_NINT=NINT
_MAX=MAX
_MIN=MIN
_COSMO=  0.000000000000000    
_COSMOIT=  0.000000000000000    
_COSMOES=  0.000000000000000    
_COSMOEDS=  0.000000000000000    
_COSMOEC=  0.000000000000000    
_COSMOEDCORR=  0.000000000000000    
_FEPSI=  1.000000000000000    
_SL_IsMM=  0.000000000000000    
_SL_NSYM=  1.000000000000000    
_SL_System_BitSw=  0.000000000000000    
_SL_Unique_atoms=  0.000000000000000    
_SL_GRAD=  0.000000000000000    
_SL_MAXUPD_Hess=  5.000000000000000    
_SL_N_PRINT_COD=  5.000000000000000    
_SL_PRINT_CODES=  0.000000000000000    
_SL_BasType=  0.000000000000000    
_SL_Energy_Pred=  0.000000000000000    
_SL_New_Coords=  0.000000000000000    
_SL_Total_Nuclea=  0.000000000000000    
_SL_Highest_Mltp=  0.000000000000000    
_SL_Ref_Geom=  0.000000000000000    
_SL_Symmetry_ope=  1.000000000000000    
_SL_agrad=  0.000000000000000    
_SL_GrdMax=  0.000000000000000    
_SL_GrdNorm=  0.000000000000000    
_SL_GrdRMS=  0.000000000000000    
_SL_Hss_Q=  0.000000000000000    
_SL_Hss_X=  0.000000000000000    
_SL_BMxOld=  0.000000000000000    
_SL_KtB=  0.000000000000000    
_SL_TROld=  0.000000000000000    
_SL_No_of_Intern=  0.000000000000000    
_SL_Hess=  0.000000000000000    
_SL_K=  0.000000000000000    
!LATTICE= -1.000000000000000    
!NEWLATTICE=  0.000000000000000    
!LATGRAD_VAR=FALSE
!SEW_LATTICE=  1.000000000000000    
!AIC_ONEEL=  0.000000000000000    
!LOCAL=  0.000000000000000    
!SAVEDOM= -1.000000000000000    
!RESTDOM= -1.000000000000000    
!SAVEDOM_HF= -1.000000000000000    
!RESTDOM_HF= -1.000000000000000    
!HESSREC=  5300.200000000000    
!FREQREC=  5400.200000000000    
!NMODREC=  5450.200000000000    
!GTASKS=  0.000000000000000    
!HTASKS=  0.000000000000000    
!SAVEDOM_EOM= -1.000000000000000    
!RESTDOM_EOM= -1.000000000000000    
!GRADSTATE= -1.000000000000000    
!DEBUG=  0.000000000000000    
!CFIT_CPHF=  0.000000000000000    
!RDOMAUX_CPHF=  0.000000000000000    
!THRAO_CPHF= 0.1000000000000000E-11
!THRMO_CPHF= 0.1000000000000000E-11
!THROV_CPHF= 0.1000000000000000E-11
!THRSW_CPHF= 0.1000000000000000E-11
!THRPROD_CPHF= 0.1000000000000000E-11
!THRAOPR_CPHF= 0.1000000000000000E-11
!CFIT_SCFGRD=  0.000000000000000    
!RDOMAUX_SCFGRD=  0.000000000000000    
!THRAO_SCFGRD= 0.1000000000000000E-11
!THRMO_SCFGRD= 0.1000000000000000E-11
!THROV_SCFGRD= 0.1000000000000000E-11
!THRSW_SCFGRD= 0.1000000000000000E-11
!THRPROD_SCFGRD= 0.1000000000000000E-11
!THRAOPR_SCFGRD= 0.1000000000000000E-11
!LOCFIT_SCF=  0.000000000000000    
!LOCFIT_MP2=  0.000000000000000    
_RIDOM=  0.000000000000000    
!CC2_METHOD=  0.000000000000000    
_BASIS2006=FALSE
_SVDDEL= -1.000000000000000    
_SVDDELA= -1.000000000000000    
_SVDDELP= -1.000000000000000    
_SVDDELF= -1.000000000000000    
_SVDDELS= -1.000000000000000    
_SVDDEL_ABS= -1.000000000000000    
_SVDDELA_ABS= -1.000000000000000    
_SVDDELP_ABS= -1.000000000000000    
_SVDDELF_ABS= -1.000000000000000    
_SVDDELS_ABS= -1.000000000000000    
_MAXBASIS=  0.000000000000000    
!OPT_CONICAL=  0.000000000000000    
!CLEARSP_JGRID=  0.000000000000000    
_GRDHYBR=  0.000000000000000    
_STATEGRAD=  1.000000000000000    
_4EXT_NDISKS=  1.000000000000000    
!EMBEDFLAG=  1.000000000000000    
!EMBED=FALSE
!EMBED_F12=FALSE
!EMBEDNUC=  0.000000000000000    
_EMBEDENERGY=  0.000000000000000    
!EMBED_DFC=FALSE
!NUM_VOIDS=  0.000000000000000    
_IBODY=  0.000000000000000    
_EMBE_CORR=  0.000000000000000    
!EMBED_PROJ=FALSE
!EMB_PROJ_ZMU=  1000000.000000000    
!CORRECTION_HF=  0.000000000000000    
!EMBED_AORB=  0.000000000000000    
!EMBED_NACORR=  0.000000000000000    
!EMBED_MP2=FALSE
!EMBED_TRUNC_PERTURBATION=FALSE
!EMBED_FROZEN=  0.000000000000000    
!EMBED_ACTIVE=  0.000000000000000    
_CHANGE_BASIS=FALSE
_RESTORE_BASIS=FALSE
_FIX_EMBED_GUESS=FALSE
_EMBED_SCF=FALSE
_NEOBAS=FALSE
_NEOOVE=FALSE
_PRINEO=FALSE
_HUZINAGA_T=FALSE
_HUZINAGA_F=FALSE
_HUZINAGA=FALSE
_HUZINAGA_CORRECT=FALSE
!FASTLATGRAD=  1.000000000000000    
!FASTVLAMBDA= -1.000000000000000    
!IFORCE= -1.000000000000000    
!USESYM= -1.000000000000000    
_SINDEX=  0.000000000000000    
_AVDOM_OSV=  0.000000000000000    
_AVDOM_PNO=  0.000000000000000    
_AVDOM_PNOCC=  0.000000000000000    
_AVDOM_TNO=  0.000000000000000    
_AVDOM_TNOIT=  0.000000000000000    
_AVDOM_PAO=  0.000000000000000    
_AVDOM_LMO=  0.000000000000000    
_CC2OSV_FLAG=  0.000000000000000    
_EOMCCSD_CONV=FALSE
_TMADC2_FLAG=FALSE
_PROPADC2_FLAG=FALSE
_LEN_VirQ=  0.000000000000000    
_GRDCC2LR_FLAG=FALSE
_GRDADC2_FLAG=FALSE
_RO_VGLOBAL=  0.000000000000000    
_OPT=FALSE
_FREQ=FALSE
_HESS=FALSE
_CMRCC_callName=EMPTY
_CMRCC_callCount=  0.000000000000000    
_GECCO_CIROOT=  1.000000000000000    
_SYM_CATION=  1.000000000000000    
_MON_A=FALSE
_MON_B=FALSE
_MAXGEOM=  100.0000000000000    
!MAXGEOM=  100.0000000000000    
GX1=  1.206147427162727    
GY1=  1.414020828981819    
GZ1=-0.1859441682790336E-01
GX2= -1.226523577311459    
GY2=  1.396398383075466    
GZ2=-0.1480416605010387E-01
GX3= 0.5825573607900178E-02
GY3=-0.8027714372729881    
GZ3= 0.9728521707324500E-02
GX4=  1.314910970951736    
GY4= 0.1023348070267180    
GZ4=-0.3295423663055365E-02
GX5= -1.316281306394937    
GY5= 0.8325706676392582E-01
GZ5= 0.7158223836424655E-03
GX6= 0.1247753568382134E-01
GY6= -1.514937578069330    
GZ6= 0.9736875420521702    
GX7= 0.9745301993993807E-02
GY7= -1.538809284453735    
GZ7=-0.9360936567165957    
GX8=  2.418064060985888    
GY8=-0.4259502683657347    
GZ8= 0.9926809726127364E-03
GX9= -2.411693050830173    
GY9=-0.4608705801830477    
GZ9= 0.8279678738781954E-02
GX10=-0.1267293584950139E-01
GY10=  1.747328062496907    
GZ10=-0.2061658259687335E-01
OX1=  2.279288303259564    
OY1=  2.672112101291932    
OZ1=-0.3513835525187003E-01
OX2= -2.317793646514919    
OY2=  2.638810504882892    
OZ2=-0.2797581933817919E-01
CX3= 0.1100873863777937E-01
CY3= -1.517018157118143    
CZ3= 0.1838424162432001E-01
CX4=  2.484821613364532    
CY4= 0.1933847582969258    
CZ4=-0.6227448187785675E-02
CX5= -2.487411172051050    
CY5= 0.1573330541235025    
CZ5= 0.1352708258961058E-02
HX6= 0.2357912515266747E-01
HY6= -2.862817118454906    
HZ6=  1.840002785438639    
HX7= 0.1841595177041771E-01
HY7= -2.907928105648911    
HZ7= -1.768960638193819    
HX8=  4.569478827063714    
HY8=-0.8049293499220866    
HZ8= 0.1875895167365207E-02
HX9= -4.557439362732203    
HY9=-0.8709191754433410    
HZ9= 0.1564632521618481E-01
HX10=-0.2394837795050925E-01
HY10=  3.301971487992135    
HZ10=-0.3895969473381657E-01
[Atoms] Angs
O     1    8         1.2061474272        1.4140208290       -0.0185944168
O     2    8        -1.2265235773        1.3963983831       -0.0148041661
C     3    6         0.0058255736       -0.8027714373        0.0097285217
C     4    6         1.3149109710        0.1023348070       -0.0032954237
C     5    6        -1.3162813064        0.0832570668        0.0007158224
H     6    1         0.0124775357       -1.5149375781        0.9736875421
H     7    1         0.0097453020       -1.5388092845       -0.9360936567
H     8    1         2.4180640610       -0.4259502684        0.0009926810
H     9    1        -2.4116930508       -0.4608705802        0.0082796787
H    10    1        -0.0126729358        1.7473280625       -0.0206165826
[GTO]
   1 0
 s   10  1.00
  0.1533000000D+05  0.5079996682D-03
  0.2299000000D+04  0.3928997434D-02
  0.5224000000D+03  0.2024298678D-01
  0.1473000000D+03  0.7918094828D-01
  0.4755000000D+02  0.2306868493D+00
  0.1676000000D+02  0.4331177171D+00
  0.6207000000D+01  0.3502597712D+00
  0.1752000000D+01  0.4272797209D-01
  0.6882000000D+00 -0.8153994674D-02
  0.2384000000D+00  0.2380998445D-02
 s   10  1.00
  0.1533000000D+05 -0.1150000604D-03
  0.2299000000D+04 -0.8950004697D-03
  0.5224000000D+03 -0.4636002433D-02
  0.1473000000D+03 -0.1872400983D-01
  0.4755000000D+02 -0.5846303068D-01
  0.1676000000D+02 -0.1364630716D+00
  0.6207000000D+01 -0.1757400922D+00
  0.1752000000D+01  0.1609340845D+00
  0.6882000000D+00  0.6034183167D+00
  0.2384000000D+00  0.3787651988D+00
 p    5  1.00
  0.3446000000D+02  0.1592799074D-01
  0.7749000000D+01  0.9973994203D-01
  0.2280000000D+01  0.3104918195D+00
  0.7156000000D+00  0.4910257146D+00
  0.2140000000D+00  0.3363368045D+00
  
   2 0
 s   10  1.00
  0.1533000000D+05  0.5079996682D-03
  0.2299000000D+04  0.3928997434D-02
  0.5224000000D+03  0.2024298678D-01
  0.1473000000D+03  0.7918094828D-01
  0.4755000000D+02  0.2306868493D+00
  0.1676000000D+02  0.4331177171D+00
  0.6207000000D+01  0.3502597712D+00
  0.1752000000D+01  0.4272797209D-01
  0.6882000000D+00 -0.8153994674D-02
  0.2384000000D+00  0.2380998445D-02
 s   10  1.00
  0.1533000000D+05 -0.1150000604D-03
  0.2299000000D+04 -0.8950004697D-03
  0.5224000000D+03 -0.4636002433D-02
  0.1473000000D+03 -0.1872400983D-01
  0.4755000000D+02 -0.5846303068D-01
  0.1676000000D+02 -0.1364630716D+00
  0.6207000000D+01 -0.1757400922D+00
  0.1752000000D+01  0.1609340845D+00
  0.6882000000D+00  0.6034183167D+00
  0.2384000000D+00  0.3787651988D+00
 p    5  1.00
  0.3446000000D+02  0.1592799074D-01
  0.7749000000D+01  0.9973994203D-01
  0.2280000000D+01  0.3104918195D+00
  0.7156000000D+00  0.4910257146D+00
  0.2140000000D+00  0.3363368045D+00
  
   3 0
 s   10  1.00
  0.8236000000D+04  0.5309998617D-03
  0.1235000000D+04  0.4107998930D-02
  0.2808000000D+03  0.2108699451D-01
  0.7927000000D+02  0.8185297868D-01
  0.2559000000D+02  0.2348169388D+00
  0.8997000000D+01  0.4344008869D+00
  0.3319000000D+01  0.3461289099D+00
  0.9059000000D+00  0.3937798974D-01
  0.3643000000D+00 -0.8982997660D-02
  0.1285000000D+00  0.2384999379D-02
 s   10  1.00
  0.8236000000D+04 -0.1129999414D-03
  0.1235000000D+04 -0.8779995449D-03
  0.2808000000D+03 -0.4539997647D-02
  0.7927000000D+02 -0.1813299060D-01
  0.2559000000D+02 -0.5575997110D-01
  0.8997000000D+01 -0.1268949342D+00
  0.3319000000D+01 -0.1703519117D+00
  0.9059000000D+00  0.1403819272D+00
  0.3643000000D+00  0.5986836897D+00
  0.1285000000D+00  0.3953887950D+00
 p    5  1.00
  0.1871000000D+02  0.1403099838D-01
  0.4133000000D+01  0.8686598995D-01
  0.1200000000D+01  0.2902159664D+00
  0.3827000000D+00  0.5010079421D+00
  0.1209000000D+00  0.3434059603D+00
  
   4 0
 s   10  1.00
  0.8236000000D+04  0.5309998617D-03
  0.1235000000D+04  0.4107998930D-02
  0.2808000000D+03  0.2108699451D-01
  0.7927000000D+02  0.8185297868D-01
  0.2559000000D+02  0.2348169388D+00
  0.8997000000D+01  0.4344008869D+00
  0.3319000000D+01  0.3461289099D+00
  0.9059000000D+00  0.3937798974D-01
  0.3643000000D+00 -0.8982997660D-02
  0.1285000000D+00  0.2384999379D-02
 s   10  1.00
  0.8236000000D+04 -0.1129999414D-03
  0.1235000000D+04 -0.8779995449D-03
  0.2808000000D+03 -0.4539997647D-02
  0.7927000000D+02 -0.1813299060D-01
  0.2559000000D+02 -0.5575997110D-01
  0.8997000000D+01 -0.1268949342D+00
  0.3319000000D+01 -0.1703519117D+00
  0.9059000000D+00  0.1403819272D+00
  0.3643000000D+00  0.5986836897D+00
  0.1285000000D+00  0.3953887950D+00
 p    5  1.00
  0.1871000000D+02  0.1403099838D-01
  0.4133000000D+01  0.8686598995D-01
  0.1200000000D+01  0.2902159664D+00
  0.3827000000D+00  0.5010079421D+00
  0.1209000000D+00  0.3434059603D+00
  
   5 0
 s   10  1.00
  0.8236000000D+04  0.5309998617D-03
  0.1235000000D+04  0.4107998930D-02
  0.2808000000D+03  0.2108699451D-01
  0.7927000000D+02  0.8185297868D-01
  0.2559000000D+02  0.2348169388D+00
  0.8997000000D+01  0.4344008869D+00
  0.3319000000D+01  0.3461289099D+00
  0.9059000000D+00  0.3937798974D-01
  0.3643000000D+00 -0.8982997660D-02
  0.1285000000D+00  0.2384999379D-02
 s   10  1.00
  0.8236000000D+04 -0.1129999414D-03
  0.1235000000D+04 -0.8779995449D-03
  0.2808000000D+03 -0.4539997647D-02
  0.7927000000D+02 -0.1813299060D-01
  0.2559000000D+02 -0.5575997110D-01
  0.8997000000D+01 -0.1268949342D+00
  0.3319000000D+01 -0.1703519117D+00
  0.9059000000D+00  0.1403819272D+00
  0.3643000000D+00  0.5986836897D+00
  0.1285000000D+00  0.3953887950D+00
 p    5  1.00
  0.1871000000D+02  0.1403099838D-01
  0.4133000000D+01  0.8686598995D-01
  0.1200000000D+01  0.2902159664D+00
  0.3827000000D+00  0.5010079421D+00
  0.1209000000D+00  0.3434059603D+00
  
   6 0
 s    5  1.00
  0.3387000000D+02  0.6067999217D-02
  0.5095000000D+01  0.4530799416D-01
  0.1159000000D+01  0.2028219738D+00
  0.3258000000D+00  0.5039029350D+00
  0.1027000000D+00  0.3834209505D+00
  
   7 0
 s    5  1.00
  0.3387000000D+02  0.6067999217D-02
  0.5095000000D+01  0.4530799416D-01
  0.1159000000D+01  0.2028219738D+00
  0.3258000000D+00  0.5039029350D+00
  0.1027000000D+00  0.3834209505D+00
  
   8 0
 s    5  1.00
  0.3387000000D+02  0.6067999217D-02
  0.5095000000D+01  0.4530799416D-01
  0.1159000000D+01  0.2028219738D+00
  0.3258000000D+00  0.5039029350D+00
  0.1027000000D+00  0.3834209505D+00
  
   9 0
 s    5  1.00
  0.3387000000D+02  0.6067999217D-02
  0.5095000000D+01  0.4530799416D-01
  0.1159000000D+01  0.2028219738D+00
  0.3258000000D+00  0.5039029350D+00
  0.1027000000D+00  0.3834209505D+00
  
  10 0
 s    5  1.00
  0.3387000000D+02  0.6067999217D-02
  0.5095000000D+01  0.4530799416D-01
  0.1159000000D+01  0.2028219738D+00
  0.3258000000D+00  0.5039029350D+00
  0.1027000000D+00  0.3834209505D+00


[MO]
 Sym=      1.1
 Ene=     -20.8957
 Spin= Alpha
 Occup=    2.000000
1 0.80147565883244
2 0.000743564583827
3 -0.000402900609428
4 -0.001296885555730
5 0.000015942860039
6 -0.59809812319554
7 -0.000569040740768
8 -0.000347516433131
9 0.000958973597471
10 -0.000010785849096
11 0.000001930166556
12 0.000003397789971
13 0.000005399748346
14 -0.000011592139593
15 0.000000128416536
16 -0.000116315643020
17 -0.000534058757328
18 0.000091513561280
19 -0.000209407577317
20 0.000002312110961
21 0.000088468560753
22 0.000397329433620
23 0.000051475128191
24 0.000142613012093
25 -0.000001724509299
26 -0.000002447921609
27 -0.000002455031161
28 -0.000036543536540
29 0.000016965792020
30 -0.000001405087468
 Sym=      2.1
 Ene=     -20.8956
 Spin= Alpha
 Occup=    2.000000
1 0.59809959002683
2 0.000505083068856
3 -0.000185012138203
4 -0.000981339508271
5 0.000011880798708
6 0.80147674803247
7 0.000695796374348
8 0.000310984367896
9 -0.001305449040001
10 0.000014909011435
11 0.000013282759419
12 0.000023362815293
13 -0.000000189141860
14 -0.000080090694285
15 0.000000909383538
16 -0.000080919390029
17 -0.000402702587850
18 0.000120163080831
19 -0.000206899020215
20 0.000002252447689
21 -0.000110671087396
22 -0.000538007610861
23 -0.000137479326599
24 -0.000259938303277
25 0.000003229773937
26 -0.000016842088274
27 -0.000016912207941
28 -0.000063494163852
29 -0.000071268082804
30 -0.000009663092031
 Sym=      3.1
 Ene=     -11.8089
 Spin= Alpha
 Occup=    2.000000
1 -0.000077363320800
2 0.000107526789631
3 -0.000015760263788
4 -0.000403370241485
5 0.000004764144799
6 0.000075753282494
7 -0.000102369550382
8 -0.000021241351752
9 0.000393516863065
10 -0.000004568280532
11 0.000031220636756
12 0.000008019426324
13 0.000707610890696
14 0.000008418586348
15 -0.000001110733632
16 0.71647004972196
17 -0.000008072587294
18 -0.000407472762932
19 0.000674177003930
20 -0.000007312891214
21 -0.69745647760537
22 0.000004573219188
23 -0.000393259207337
24 -0.000665307100137
25 0.000008317661978
26 -0.000003003113062
27 -0.000003001317723
28 0.000473628089789
29 -0.000461674933258
30 -0.000006039270868
 Sym=      4.1
 Ene=     -11.8089
 Spin= Alpha
 Occup=    2.000000
1 -0.000058391953981
2 0.000190707620045
3 -0.000008047858660
4 -0.000351134049011
5 0.000004149360235
6 -0.000060439903971
7 0.000193531539345
8 0.000013698098687
9 -0.000361685791963
10 0.000004205785598
11 0.002321302792179
12 0.000594748575057
13 -0.000011279768446
14 0.000244189772401
15 -0.000003106692904
16 0.69744472718940
17 -0.000131267833423
18 -0.000166040878802
19 0.000532578799413
20 -0.000005912671732
21 0.71645861776685
22 -0.000131463061214
23 0.000168943693666
24 0.000552947432862
25 -0.000006586758685
26 -0.000222885451361
27 -0.000222850543035
28 0.000437820814291
29 0.000450381056748
30 -0.000447573000679
 Sym=      5.1
 Ene=     -11.6805
 Spin= Alpha
 Occup=    2.000000
1 -0.000000249656312
2 -0.000039739305657
3 0.000087577699373
4 0.000084646493651
5 -0.000001169384825
6 -0.000000251804289
7 -0.000039752366486
8 -0.000088797937201
9 0.000083376900118
10 -0.000000905323887
11 0.99996048681807
12 0.001282770560744
13 -0.000003263699674
14 0.000449610423493
15 -0.000005291977383
16 -0.001670894381234
17 -0.000081574905570
18 -0.000145914833545
19 -0.000147238133117
20 0.000002002644792
21 -0.001670893895503
22 -0.000081582712148
23 0.000148044612247
24 -0.000145101081211
25 0.000001552299767
26 0.000147137639489
27 0.000147431687435
28 -0.000157745120377
29 -0.000157718041036
30 -0.000142809145797
 Sym=      6.1
 Ene=      -1.7116
 Spin= Alpha
 Occup=    2.000000
1 -0.014655997539246
2 0.52633195980000
3 -0.053125336152790
4 -0.11152223981060
5 0.001399867959105
6 -0.014650526073925
7 0.52613018889329
8 0.054720147155408
9 -0.11069201067486
10 0.001224306935034
11 -0.007610507588457
12 0.051339649909454
13 -0.000008257664616
14 0.001890005500517
15 -0.000029658975976
16 -0.027667563735970
17 0.16087809950805
18 -0.022148224504957
19 0.091535871520561
20 -0.001041074565506
21 -0.027655687745705
22 0.16081428113867
23 0.020810547976428
24 0.091801957006501
25 -0.001100177217028
26 0.000260001851377
27 0.000267681394490
28 0.007490334263217
29 0.007485670177918
30 0.041102800130519
 Sym=      7.1
 Ene=      -1.6743
 Spin= Alpha
 Occup=    2.000000
1 0.013480226224202
2 -0.55757173745551
3 0.037934485627090
4 0.12095499539093
5 -0.001487941034131
6 -0.013485103194842
7 0.55776784330358
8 0.039703358215055
9 -0.12042876189481
10 0.001360124417281
11 -0.000001985805478
12 0.000010827739930
13 -0.027899022988668
14 -0.000201095290906
15 0.000041956541422
16 0.027078818861876
17 -0.17702112440768
18 0.026017013497017
19 -0.11411853420865
20 0.001305902759780
21 -0.027087471111105
22 0.17708235468020
23 0.024369245449316
24 0.11451271841284
25 -0.001376421481980
26 -0.000000151582303
27 0.000000092820817
28 -0.011484869848749
29 0.011487051294239
30 0.000010933003626
 Sym=      8.1
 Ene=      -1.3264
 Spin= Alpha
 Occup=    2.000000
1 -0.001429256894190
2 -0.20775819833436
3 0.017849711128820
4 -0.044229228611340
5 0.000496902460142
6 -0.001429555900956
7 -0.20776376644098
8 -0.017205967338041
9 -0.044482627917005
10 0.000550205464376
11 -0.041481869530401
12 0.55299729968636
13 -0.000473168280805
14 0.065890940303325
15 -0.000779181647763
16 -0.019457387775572
17 0.24555421147090
18 -0.097043766780582
19 -0.11354251007060
20 0.001513021476022
21 -0.019456886806074
22 0.24554240898443
23 0.098681988365541
24 -0.11211735398885
25 0.001210954749370
26 0.056866990844446
27 0.056867894956727
28 0.026270690421997
29 0.026270317049948
30 -0.072218461414935
 Sym=      9.1
 Ene=      -1.1397
 Spin= Alpha
 Occup=    2.000000
1 -0.009577703672545
2 -0.30958611026188
3 0.046050776752453
4 -0.16176709162078
5 0.001837959275874
6 0.009578402688665
7 0.30960068952975
8 0.043720519159643
9 0.16243396696246
10 -0.001966891946432
11 -0.000000239060908
12 0.000000229180864
13 0.23171755474273
14 0.001676304756067
15 -0.000352568438568
16 -0.018740932624465
17 0.46531620628484
18 -0.003568456379037
19 -0.13015511421770
20 0.001547319926328
21 0.018742104603302
22 -0.46534679774217
23 -0.005451338760612
24 0.13007580671939
25 -0.001524907074450
26 0.000000721221638
27 0.000000995866722
28 0.10481155681796
29 -0.10481715727892
30 0.000011543548099
 Sym=     10.1
 Ene=      -1.0984
 Spin= Alpha
 Occup=    2.000000
1 0.006172693238146
2 0.12270462105993
3 -0.27560465210108
4 0.23574841959975
5 -0.002327517472933
6 0.006171294229236
7 0.12267291290019
8 0.27214681740235
9 0.23968713421565
10 -0.003158103743813
11 -0.012996615880986
12 0.24738010352818
13 0.000325241343482
14 -0.045530975219983
15 0.000591177409750
16 0.008748733716579
17 -0.30107296840226
18 -0.16149469699232
19 -0.091879076898504
20 0.001367834970389
21 0.008747007284080
22 -0.30104233502462
23 0.16280596637321
24 -0.089544255778426
25 0.000870999875116
26 0.063440083061003
27 0.063439993991222
28 -0.089572013049503
29 -0.089563255014552
30 0.24032966834559
 Sym=     11.1
 Ene=      -0.9725
 Spin= Alpha
 Occup=    2.000000
1 -0.012069254008103
2 -0.25668018475605
3 -0.28469118093932
4 -0.23435545035758
5 0.003227788977806
6 -0.012067393218579
7 -0.25665061030099
8 0.28803968397995
9 -0.23017437769035
10 0.002338155798986
11 -0.004528475898115
12 -0.25434518171196
13 -0.002377289362042
14 0.32599399371605
15 -0.003936730449283
16 -0.007874885226730
17 0.094775126933218
18 -0.22582226517005
19 0.069909112121133
20 -0.000462072124610
21 -0.007874125187289
22 0.094765499503759
23 0.22476464309582
24 0.073140435471631
25 -0.001145088503255
26 -0.15662819029578
27 -0.15671526731111
28 -0.036292186037023
29 -0.036286472025924
30 -0.003761375030111
 Sym=     12.1
 Ene=      -0.9097
 Spin= Alpha
 Occup=    2.000000
1 0.001361017735474
2 0.040422690776524
3 0.39874763523294
4 0.10399202647065
5 -0.001966980704614
6 -0.001374315687804
7 -0.040297156883770
8 0.39925683410796
9 -0.099275681296515
10 0.000825718676026
11 0.000002132028612
12 0.000516905496288
13 -0.24976020234016
14 -0.002157992967142
15 0.000429598378688
16 0.002394461323146
17 -0.009041174949689
18 0.42292166485072
19 -0.017397522171049
20 -0.000563431418763
21 -0.002415233431558
22 0.007964253595300
23 0.42363103340208
24 0.024974682348998
25 -0.000683547237315
26 0.000299874390553
27 0.000262884122097
28 0.15016442541203
29 -0.15127325032650
30 -0.000573792623896
 Sym=     13.1
 Ene=      -0.9088
 Spin= Alpha
 Occup=    2.000000
1 0.002919640683356
2 -0.025019586846427
3 -0.20449290771456
4 0.22467032879162
5 -0.002717171764439
6 0.002887137353496
7 -0.025574035341187
8 0.20300422305258
9 0.22656822492080
10 -0.003349845229085
11 -0.001254001811618
12 -0.22268813815943
13 -0.001602696161758
14 0.15805709248419
15 -0.002647835472374
16 0.004421337173118
17 0.22825496460046
18 0.21395031257054
19 -0.31048644680206
20 0.002971963808470
21 0.004400135264496
22 0.22828997388957
23 -0.20745584229264
24 -0.31300806621722
25 0.003563241619733
26 -0.12470250820647
27 -0.12414728009120
28 0.23448939973304
29 0.23370165306865
30 0.24436204824298
 Sym=     14.1
 Ene=      -0.9042
 Spin= Alpha
 Occup=    2.000000
1 -0.021286391812054
2 -0.29739259626747
3 0.089281278952952
4 -0.47295885208983
5 0.005404342455242
6 0.021289513484267
7 0.29736262566858
8 0.082652823798188
9 0.47447874517177
10 -0.005647910855019
11 -0.000000170380487
12 -0.000114538771269
13 -0.23191178602449
14 -0.001610220178675
15 0.000341271792020
16 -0.007621660523908
17 -0.008857183828205
18 0.005762385707143
19 0.35300112099069
20 -0.004209453436936
21 0.007626405990338
22 0.009122125745823
23 0.010606789897848
24 -0.35326021496851
25 0.004166091287812
26 -0.000067841044014
27 -0.000058384404458
28 -0.064990825564830
29 0.065278189346299
30 0.000151196999343
 Sym=     15.1
 Ene=      -0.8871
 Spin= Alpha
 Occup=    2.000000
1 0.000003849181925
2 -0.000040462665663
3 0.000167258585642
4 0.003948306400441
5 0.30631815689195
6 0.000004618798707
7 -0.000025182004205
8 0.000626629079167
9 0.003969671962364
10 0.30627951328741
11 -0.000001484651065
12 -0.000360461490493
13 0.000698487875083
14 0.006085553100066
15 0.47467499625789
16 0.000006467128081
17 0.000337711056547
18 0.000716294264199
19 0.002324394406588
20 0.23527741303191
21 0.000006899215835
22 0.000334533998745
23 -0.000123175078857
24 0.002287332754067
25 0.23525134075838
26 0.20885534039586
27 -0.20918896747575
28 0.000367735850426
29 0.000402264026610
30 0.000349246655789
 Sym=     16.1
 Ene=      -0.8078
 Spin= Alpha
 Occup=    2.000000
1 -0.000004383685499
2 -0.000053058000481
3 0.001025935198265
4 0.006469846318856
5 0.55421919632747
6 -0.000001117126212
7 -0.000032665542353
8 -0.000461831645531
9 -0.006568617465614
10 -0.55411449654500
11 0.000000935158805
12 0.000000065223096
13 -0.000044559922093
14 -0.000103670333694
15 -0.000081315592721
16 -0.000001964744304
17 -0.000041223408796
18 0.000705278448871
19 0.004103606631081
20 0.34115954233740
21 0.000000469638635
22 0.000029164160502